 Entering Gaussian System, Link 0=g16
 Input=guaicol_freq.gjf
 Output=guaicol_freq.log
 Initial command:
 /home/jsteffen/Software/g16/l1.exe "/home/jsteffen/Software/g16/Gau-21214.inp" -scrdir="/home/jsteffen/Software/g16/"
 Entering Link 1 = /home/jsteffen/Software/g16/l1.exe PID=     21215.
  
 Copyright (c) 1988,1990,1992,1993,1995,1998,2003,2009,2016,
            Gaussian, Inc.  All Rights Reserved.
  
 This is part of the Gaussian(R) 16 program.  It is based on
 the Gaussian(R) 09 system (copyright 2009, Gaussian, Inc.),
 the Gaussian(R) 03 system (copyright 2003, Gaussian, Inc.),
 the Gaussian(R) 98 system (copyright 1998, Gaussian, Inc.),
 the Gaussian(R) 94 system (copyright 1995, Gaussian, Inc.),
 the Gaussian 92(TM) system (copyright 1992, Gaussian, Inc.),
 the Gaussian 90(TM) system (copyright 1990, Gaussian, Inc.),
 the Gaussian 88(TM) system (copyright 1988, Gaussian, Inc.),
 the Gaussian 86(TM) system (copyright 1986, Carnegie Mellon
 University), and the Gaussian 82(TM) system (copyright 1983,
 Carnegie Mellon University). Gaussian is a federally registered
 trademark of Gaussian, Inc.
  
 This software contains proprietary and confidential information,
 including trade secrets, belonging to Gaussian, Inc.
  
 This software is provided under written license and may be
 used, copied, transmitted, or stored only in accord with that
 written license.
  
 The following legend is applicable only to US Government
 contracts under FAR:
  
                    RESTRICTED RIGHTS LEGEND
  
 Use, reproduction and disclosure by the US Government is
 subject to restrictions as set forth in subparagraphs (a)
 and (c) of the Commercial Computer Software - Restricted
 Rights clause in FAR 52.227-19.
  
 Gaussian, Inc.
 340 Quinnipiac St., Bldg. 40, Wallingford CT 06492
  
  
 ---------------------------------------------------------------
 Warning -- This program may not be used in any manner that
 competes with the business of Gaussian, Inc. or will provide
 assistance to any competitor of Gaussian, Inc.  The licensee
 of this program is prohibited from giving any competitor of
 Gaussian, Inc. access to this program.  By using this program,
 the user acknowledges that Gaussian, Inc. is engaged in the
 business of creating and licensing software in the field of
 computational chemistry and represents and warrants to the
 licensee that it is not a competitor of Gaussian, Inc. and that
 it will not use this program in any manner prohibited above.
 ---------------------------------------------------------------
  

 Cite this work as:
 Gaussian 16, Revision A.03,
 M. J. Frisch, G. W. Trucks, H. B. Schlegel, G. E. Scuseria, 
 M. A. Robb, J. R. Cheeseman, G. Scalmani, V. Barone, 
 G. A. Petersson, H. Nakatsuji, X. Li, M. Caricato, A. V. Marenich, 
 J. Bloino, B. G. Janesko, R. Gomperts, B. Mennucci, H. P. Hratchian, 
 J. V. Ortiz, A. F. Izmaylov, J. L. Sonnenberg, D. Williams-Young, 
 F. Ding, F. Lipparini, F. Egidi, J. Goings, B. Peng, A. Petrone, 
 T. Henderson, D. Ranasinghe, V. G. Zakrzewski, J. Gao, N. Rega, 
 G. Zheng, W. Liang, M. Hada, M. Ehara, K. Toyota, R. Fukuda, 
 J. Hasegawa, M. Ishida, T. Nakajima, Y. Honda, O. Kitao, H. Nakai, 
 T. Vreven, K. Throssell, J. A. Montgomery, Jr., J. E. Peralta, 
 F. Ogliaro, M. J. Bearpark, J. J. Heyd, E. N. Brothers, K. N. Kudin, 
 V. N. Staroverov, T. A. Keith, R. Kobayashi, J. Normand, 
 K. Raghavachari, A. P. Rendell, J. C. Burant, S. S. Iyengar, 
 J. Tomasi, M. Cossi, J. M. Millam, M. Klene, C. Adamo, R. Cammi, 
 J. W. Ochterski, R. L. Martin, K. Morokuma, O. Farkas, 
 J. B. Foresman, and D. J. Fox, Gaussian, Inc., Wallingford CT, 2016.
 
 ******************************************
 Gaussian 16:  ES64L-G16RevA.03 25-Dec-2016
                 3-Sep-2021 
 ******************************************
 %chk=guaicol_freq.chk
 ----------------------------------------------------------------------
 #p freq b3lyp/cc-pvdz geom=connectivity empiricaldispersion=gd3 pop=(h
 irshfeld, nboread) density=current iop(7/33=1,6/80=1)
 ----------------------------------------------------------------------
 1/10=4,30=1,38=1,57=2/1,3;
 2/12=2,17=6,18=5,40=1/2;
 3/5=16,11=2,25=1,30=1,71=2,74=-5,124=31,140=1/1,2,3;
 4//1;
 5/5=2,38=5,98=1/2;
 8/6=4,10=90,11=11/1;
 11/6=1,8=1,9=11,15=111,16=1/1,2,10;
 10/6=1/2;
 6/7=2,8=2,9=2,10=2,22=-1,28=1,40=2,79=1,80=1/1,7;
 7/8=1,10=1,25=1,33=1/1,2,3,16;
 1/10=4,30=1/3;
 99//99;
 Leave Link    1 at Fri Sep  3 14:42:38 2021, MaxMem=           0 cpu:               0.0 elap:               0.0
 (Enter /home/jsteffen/Software/g16/l101.exe)
 -------------------
 Title Card Required
 -------------------
 Symbolic Z-matrix:
 Charge =  0 Multiplicity = 1
 C                     2.30532  -0.58895  -0.00004 
 C                     1.84162   0.7332    0.00004 
 C                     0.47337   0.99331   0.0001 
 C                    -0.44237  -0.08325  -0.00008 
 C                     0.01951  -1.39901  -0.00003 
 C                     1.40075  -1.64981   0.00004 
 H                     3.37989  -0.78249  -0.00006 
 H                     2.528     1.5818    0.00007 
 H                    -0.68283  -2.23262   0.00002 
 H                     1.75774  -2.68142   0.00002 
 O                     0.02043   2.27811   0.00004 
 H                    -0.95035   2.22947   0.00028 
 O                    -1.75938   0.31714  -0.00035 
 C                    -2.76436  -0.68478   0.0002 
 H                    -3.72615  -0.15504   0.00039 
 H                    -2.69928  -1.32313  -0.89949 
 H                    -2.69849  -1.3229    0.89996 
 
 ITRead=  0  0  0  0  0  0  0  0  0  0  0  0  0  0  0  0  0
 MicOpt= -1 -1 -1 -1 -1 -1 -1 -1 -1 -1 -1 -1 -1 -1 -1 -1 -1
 NAtoms=     17 NQM=       17 NQMF=       0 NMMI=      0 NMMIF=      0
                NMic=       0 NMicF=      0.
                    Isotopes and Nuclear Properties:
 (Nuclear quadrupole moments (NQMom) in fm**2, nuclear magnetic moments (NMagM)
  in nuclear magnetons)

  Atom         1           2           3           4           5           6           7           8           9          10
 IAtWgt=          12          12          12          12          12          12           1           1           1           1
 AtmWgt=  12.0000000  12.0000000  12.0000000  12.0000000  12.0000000  12.0000000   1.0078250   1.0078250   1.0078250   1.0078250
 NucSpn=           0           0           0           0           0           0           1           1           1           1
 AtZEff=  -0.0000000  -0.0000000  -0.0000000  -0.0000000  -0.0000000  -0.0000000  -0.0000000  -0.0000000  -0.0000000  -0.0000000
 NQMom=    0.0000000   0.0000000   0.0000000   0.0000000   0.0000000   0.0000000   0.0000000   0.0000000   0.0000000   0.0000000
 NMagM=    0.0000000   0.0000000   0.0000000   0.0000000   0.0000000   0.0000000   2.7928460   2.7928460   2.7928460   2.7928460
 AtZNuc=   6.0000000   6.0000000   6.0000000   6.0000000   6.0000000   6.0000000   1.0000000   1.0000000   1.0000000   1.0000000

  Atom        11          12          13          14          15          16          17
 IAtWgt=          16           1          16          12           1           1           1
 AtmWgt=  15.9949146   1.0078250  15.9949146  12.0000000   1.0078250   1.0078250   1.0078250
 NucSpn=           0           1           0           0           1           1           1
 AtZEff=  -0.0000000  -0.0000000  -0.0000000  -0.0000000  -0.0000000  -0.0000000  -0.0000000
 NQMom=    0.0000000   0.0000000   0.0000000   0.0000000   0.0000000   0.0000000   0.0000000
 NMagM=    0.0000000   2.7928460   0.0000000   0.0000000   2.7928460   2.7928460   2.7928460
 AtZNuc=   8.0000000   1.0000000   8.0000000   6.0000000   1.0000000   1.0000000   1.0000000
 Leave Link  101 at Fri Sep  3 14:42:38 2021, MaxMem=   104857600 cpu:               0.1 elap:               0.2
 (Enter /home/jsteffen/Software/g16/l103.exe)

 GradGradGradGradGradGradGradGradGradGradGradGradGradGradGradGradGradGrad
 Berny optimization.
 Initialization pass.
 Trust Radius=3.00D-01 FncErr=1.00D-07 GrdErr=1.00D-07 EigMax=2.50D+02 EigMin=1.00D-04
 Number of steps in this run=      2 maximum allowed number of steps=      2.
 GradGradGradGradGradGradGradGradGradGradGradGradGradGradGradGradGradGrad

 Leave Link  103 at Fri Sep  3 14:42:38 2021, MaxMem=   104857600 cpu:               0.0 elap:               0.0
 (Enter /home/jsteffen/Software/g16/l202.exe)
                          Input orientation:                          
 ---------------------------------------------------------------------
 Center     Atomic      Atomic             Coordinates (Angstroms)
 Number     Number       Type             X           Y           Z
 ---------------------------------------------------------------------
      1          6           0        2.305319   -0.588949   -0.000041
      2          6           0        1.841623    0.733203    0.000037
      3          6           0        0.473367    0.993311    0.000098
      4          6           0       -0.442367   -0.083247   -0.000078
      5          6           0        0.019509   -1.399009   -0.000034
      6          6           0        1.400751   -1.649812    0.000038
      7          1           0        3.379894   -0.782492   -0.000063
      8          1           0        2.527997    1.581799    0.000073
      9          1           0       -0.682832   -2.232619    0.000020
     10          1           0        1.757742   -2.681415    0.000019
     11          8           0        0.020435    2.278111    0.000037
     12          1           0       -0.950345    2.229474    0.000276
     13          8           0       -1.759383    0.317139   -0.000352
     14          6           0       -2.764361   -0.684776    0.000202
     15          1           0       -3.726152   -0.155043    0.000386
     16          1           0       -2.699277   -1.323130   -0.899489
     17          1           0       -2.698485   -1.322900    0.899956
 ---------------------------------------------------------------------
                    Distance matrix (angstroms):
                    1          2          3          4          5
     1  C    0.000000
     2  C    1.401107   0.000000
     3  C    2.420661   1.392760   0.000000
     4  C    2.793835   2.425531   1.413346   0.000000
     5  C    2.425103   2.804715   2.434992   1.394474   0.000000
     6  C    1.394157   2.423453   2.801096   2.418927   1.403828
     7  H    1.091865   2.159538   3.406079   3.885694   3.416472
     8  H    2.182140   1.091433   2.137247   3.405208   3.895861
     9  H    3.410381   3.894736   3.426867   2.162781   1.090040
    10  H    2.162927   3.415648   3.892716   3.404549   2.160097
    11  O    3.666161   2.388194   1.362299   2.406283   3.677120
    12  H    4.306142   3.167636   1.885485   2.367852   3.755863
    13  O    4.164469   3.624963   2.332892   1.376532   2.471765
    14  C    5.070585   4.819310   3.646760   2.398643   2.874032
    15  H    6.047059   5.638182   4.353697   3.284570   3.946825
    16  H    5.137510   5.065316   4.029991   2.727616   2.864712
    17  H    5.136802   5.064582   4.029296   2.727062   2.864134
                    6          7          8          9         10
     6  C    0.000000
     7  H    2.160845   0.000000
     8  H    3.422571   2.513085   0.000000
     9  H    2.163558   4.313770   4.985901   0.000000
    10  H    1.091626   2.497456   4.332238   2.481496   0.000000
    11  O    4.163394   4.544585   2.602445   4.565224   5.255011
    12  H    4.536134   5.274742   3.538128   4.470104   5.608081
    13  O    3.722277   5.255602   4.470011   2.767711   4.621850
    14  C    4.275447   6.145031   5.757292   2.593950   4.943276
    15  H    5.340362   7.133693   6.490840   3.684850   6.037852
    16  H    4.210237   6.169082   6.047497   2.387956   4.745426
    17  H    4.209568   6.168368   6.046750   2.387536   4.744830
                   11         12         13         14         15
    11  O    0.000000
    12  H    0.971998   0.000000
    13  O    2.648238   2.076432   0.000000
    14  C    4.066176   3.432711   1.419088   0.000000
    15  H    4.467343   3.659375   2.022656   1.098026   0.000000
    16  H    4.601621   4.060706   2.093401   1.105068   1.796852
    17  H    4.601050   4.060145   2.093369   1.105033   1.797002
                   16         17
    16  H    0.000000
    17  H    1.799444   0.000000
 Stoichiometry    C7H8O2
 Framework group  C1[X(C7H8O2)]
 Deg. of freedom    45
 Full point group                 C1      NOp   1
 Largest Abelian subgroup         C1      NOp   1
 Largest concise Abelian subgroup C1      NOp   1
                         Standard orientation:                         
 ---------------------------------------------------------------------
 Center     Atomic      Atomic             Coordinates (Angstroms)
 Number     Number       Type             X           Y           Z
 ---------------------------------------------------------------------
      1          6           0        2.305319   -0.588949   -0.000041
      2          6           0        1.841623    0.733203    0.000037
      3          6           0        0.473367    0.993311    0.000098
      4          6           0       -0.442367   -0.083247   -0.000078
      5          6           0        0.019509   -1.399009   -0.000034
      6          6           0        1.400751   -1.649812    0.000038
      7          1           0        3.379894   -0.782492   -0.000063
      8          1           0        2.527997    1.581799    0.000073
      9          1           0       -0.682832   -2.232619    0.000020
     10          1           0        1.757742   -2.681415    0.000019
     11          8           0        0.020435    2.278111    0.000037
     12          1           0       -0.950345    2.229474    0.000276
     13          8           0       -1.759383    0.317139   -0.000352
     14          6           0       -2.764361   -0.684776    0.000202
     15          1           0       -3.726152   -0.155043    0.000386
     16          1           0       -2.699277   -1.323130   -0.899489
     17          1           0       -2.698485   -1.322900    0.899956
 ---------------------------------------------------------------------
 Rotational constants (GHZ):           2.6017076           1.5451825           0.9755351
 Leave Link  202 at Fri Sep  3 14:42:39 2021, MaxMem=   104857600 cpu:               0.0 elap:               0.0
 (Enter /home/jsteffen/Software/g16/l301.exe)
 Standard basis: CC-pVDZ (5D, 7F)
 Ernie: Thresh=  0.10000D-02 Tol=  0.10000D-05 Strict=F.
 Ernie:  18 primitive shells out of 238 were deleted.
 There are   175 symmetry adapted cartesian basis functions of A   symmetry.
 There are   166 symmetry adapted basis functions of A   symmetry.
   166 basis functions,   353 primitive gaussians,   175 cartesian basis functions
    33 alpha electrons       33 beta electrons
       nuclear repulsion energy       432.5695967966 Hartrees.
 IExCor=  402 DFT=T Ex+Corr=B3LYP ExCW=0 ScaHFX=  0.200000
 ScaDFX=  0.800000  0.720000  1.000000  0.810000 ScalE2=  1.000000  1.000000
 IRadAn=      5 IRanWt=     -1 IRanGd=            0 ICorTp=0 IEmpDi=131
 NAtoms=   17 NActive=   17 NUniq=   17 SFac= 1.00D+00 NAtFMM=   60 NAOKFM=F Big=F
 Integral buffers will be    131072 words long.
 Raffenetti 2 integral format.
 Two-electron integral symmetry is turned on.
 R6Disp:  Grimme-D3 Dispersion energy=       -0.0109668376 Hartrees.
 Nuclear repulsion after empirical dispersion term =      432.5586299590 Hartrees.
 Leave Link  301 at Fri Sep  3 14:42:39 2021, MaxMem=   104857600 cpu:               0.0 elap:               0.1
 (Enter /home/jsteffen/Software/g16/l302.exe)
 NPDir=0 NMtPBC=     1 NCelOv=     1 NCel=       1 NClECP=     1 NCelD=      1
         NCelK=      1 NCelE2=     1 NClLst=     1 CellRange=     0.0.
 One-electron integrals computed using PRISM.
 One-electron integral symmetry used in STVInt
 NBasis=   166 RedAO= T EigKep=  3.86D-04  NBF=   166
 NBsUse=   166 1.00D-06 EigRej= -1.00D+00 NBFU=   166
 Precomputing XC quadrature grid using
 IXCGrd= 4 IRadAn=           5 IRanWt=          -1 IRanGd=           0 AccXCQ= 0.00D+00.
 Generated NRdTot=       0 NPtTot=           0 NUsed=           0 NTot=          32
 NSgBfM=   175   175   175   175   175 MxSgAt=    17 MxSgA2=    17.
 Leave Link  302 at Fri Sep  3 14:42:39 2021, MaxMem=   104857600 cpu:               0.4 elap:               0.4
 (Enter /home/jsteffen/Software/g16/l303.exe)
 DipDrv:  MaxL=1.
 Leave Link  303 at Fri Sep  3 14:42:39 2021, MaxMem=   104857600 cpu:               0.0 elap:               0.1
 (Enter /home/jsteffen/Software/g16/l401.exe)
 ExpMin= 1.22D-01 ExpMax= 1.17D+04 ExpMxC= 4.01D+02 IAcc=3 IRadAn=         5 AccDes= 0.00D+00
 Harris functional with IExCor=  402 and IRadAn=       5 diagonalized for initial guess.
 HarFok:  IExCor=  402 AccDes= 0.00D+00 IRadAn=         5 IDoV= 1 UseB2=F ITyADJ=14
 ICtDFT=  3500011 ScaDFX=  1.000000  1.000000  1.000000  1.000000
 FoFCou: FMM=F IPFlag=           0 FMFlag=      100000 FMFlg1=           0
         NFxFlg=           0 DoJE=T BraDBF=F KetDBF=T FulRan=T
         wScrn=  0.000000 ICntrl=       500 IOpCl=  0 I1Cent=   200000004 NGrid=           0
         NMat0=    1 NMatS0=      1 NMatT0=    0 NMatD0=    1 NMtDS0=    0 NMtDT0=    0
 Petite list used in FoFCou.
 Harris En= -422.030307262370    
 JPrj=0 DoOrth=F DoCkMO=F.
 Leave Link  401 at Fri Sep  3 14:42:45 2021, MaxMem=   104857600 cpu:               5.5 elap:               5.5
 (Enter /home/jsteffen/Software/g16/l502.exe)
 Keep R1 ints in memory in canonical form, NReq=98797577.
 FoFCou: FMM=F IPFlag=           0 FMFlag=           0 FMFlg1=           0
         NFxFlg=           0 DoJE=F BraDBF=F KetDBF=F FulRan=T
         wScrn=  0.000000 ICntrl=       600 IOpCl=  0 I1Cent=           0 NGrid=           0
         NMat0=    1 NMatS0=  13861 NMatT0=    0 NMatD0=    1 NMtDS0=    0 NMtDT0=    0
 Symmetry not used in FoFCou.
 Two-electron integral symmetry not used.
 Closed shell SCF:
 Using DIIS extrapolation, IDIIS=  1040.
 NGot=   104857600 LenX=     8722716 LenY=     8691650
 Requested convergence on RMS density matrix=1.00D-08 within 128 cycles.
 Requested convergence on MAX density matrix=1.00D-06.
 Requested convergence on             energy=1.00D-06.
 No special actions if energy rises.
 Integral accuracy reduced to 1.0D-05 until final iterations.

 Cycle   1  Pass 0  IDiag  1:
 E= -421.830094897359    
 DIIS: error= 3.19D-02 at cycle   1 NSaved=   1.
 NSaved= 1 IEnMin= 1 EnMin= -421.830094897359     IErMin= 1 ErrMin= 3.19D-02
 ErrMax= 3.19D-02  0.00D+00 EMaxC= 1.00D-01 BMatC= 1.87D-01 BMatP= 1.87D-01
 IDIUse=3 WtCom= 6.81D-01 WtEn= 3.19D-01
 Coeff-Com:  0.100D+01
 Coeff-En:   0.100D+01
 Coeff:      0.100D+01
 Gap=     0.229 Goal=   None    Shift=    0.000
 GapD=    0.229 DampG=1.000 DampE=0.500 DampFc=0.5000 IDamp=-1.
 Damping current iteration by 5.00D-01
 RMSDP=6.01D-03 MaxDP=1.12D-01              OVMax= 2.10D-01

 Cycle   2  Pass 0  IDiag  1:
 E= -421.914511636266     Delta-E=       -0.084416738906 Rises=F Damp=T
 DIIS: error= 6.82D-03 at cycle   2 NSaved=   2.
 NSaved= 2 IEnMin= 2 EnMin= -421.914511636266     IErMin= 2 ErrMin= 6.82D-03
 ErrMax= 6.82D-03  0.00D+00 EMaxC= 1.00D-01 BMatC= 1.24D-02 BMatP= 1.87D-01
 IDIUse=3 WtCom= 9.32D-01 WtEn= 6.82D-02
 Coeff-Com:  0.903D-01 0.910D+00
 Coeff-En:   0.150D+00 0.850D+00
 Coeff:      0.944D-01 0.906D+00
 Gap=     0.271 Goal=   None    Shift=    0.000
 RMSDP=1.77D-03 MaxDP=4.69D-02 DE=-8.44D-02 OVMax= 1.85D-01

 Cycle   3  Pass 0  IDiag  1:
 E= -422.015082605120     Delta-E=       -0.100570968854 Rises=F Damp=F
 DIIS: error= 9.48D-03 at cycle   3 NSaved=   3.
 NSaved= 3 IEnMin= 3 EnMin= -422.015082605120     IErMin= 2 ErrMin= 6.82D-03
 ErrMax= 9.48D-03  0.00D+00 EMaxC= 1.00D-01 BMatC= 1.35D-02 BMatP= 1.24D-02
 IDIUse=3 WtCom= 9.05D-01 WtEn= 9.48D-02
 Coeff-Com:  0.744D-02 0.511D+00 0.482D+00
 Coeff-En:   0.000D+00 0.000D+00 0.100D+01
 Coeff:      0.674D-02 0.462D+00 0.531D+00
 Gap=     0.213 Goal=   None    Shift=    0.000
 RMSDP=1.08D-03 MaxDP=3.45D-02 DE=-1.01D-01 OVMax= 8.07D-02

 Cycle   4  Pass 0  IDiag  1:
 E= -422.026735570294     Delta-E=       -0.011652965175 Rises=F Damp=F
 DIIS: error= 4.98D-03 at cycle   4 NSaved=   4.
 NSaved= 4 IEnMin= 4 EnMin= -422.026735570294     IErMin= 4 ErrMin= 4.98D-03
 ErrMax= 4.98D-03  0.00D+00 EMaxC= 1.00D-01 BMatC= 3.01D-03 BMatP= 1.24D-02
 IDIUse=3 WtCom= 9.50D-01 WtEn= 4.98D-02
 Coeff-Com: -0.415D-02 0.106D+00 0.333D+00 0.566D+00
 Coeff-En:   0.000D+00 0.000D+00 0.222D+00 0.778D+00
 Coeff:     -0.394D-02 0.101D+00 0.327D+00 0.576D+00
 Gap=     0.211 Goal=   None    Shift=    0.000
 RMSDP=3.90D-04 MaxDP=9.77D-03 DE=-1.17D-02 OVMax= 2.70D-02

 Cycle   5  Pass 0  IDiag  1:
 E= -422.030028804470     Delta-E=       -0.003293234175 Rises=F Damp=F
 DIIS: error= 7.22D-04 at cycle   5 NSaved=   5.
 NSaved= 5 IEnMin= 5 EnMin= -422.030028804470     IErMin= 5 ErrMin= 7.22D-04
 ErrMax= 7.22D-04  0.00D+00 EMaxC= 1.00D-01 BMatC= 8.24D-05 BMatP= 3.01D-03
 IDIUse=3 WtCom= 9.93D-01 WtEn= 7.22D-03
 Coeff-Com: -0.107D-02 0.196D-01 0.120D+00 0.267D+00 0.594D+00
 Coeff-En:   0.000D+00 0.000D+00 0.000D+00 0.000D+00 0.100D+01
 Coeff:     -0.106D-02 0.195D-01 0.119D+00 0.265D+00 0.597D+00
 Gap=     0.211 Goal=   None    Shift=    0.000
 RMSDP=7.32D-05 MaxDP=2.00D-03 DE=-3.29D-03 OVMax= 3.47D-03

 Cycle   6  Pass 0  IDiag  1:
 E= -422.030087188034     Delta-E=       -0.000058383564 Rises=F Damp=F
 DIIS: error= 3.48D-04 at cycle   6 NSaved=   6.
 NSaved= 6 IEnMin= 6 EnMin= -422.030087188034     IErMin= 6 ErrMin= 3.48D-04
 ErrMax= 3.48D-04  0.00D+00 EMaxC= 1.00D-01 BMatC= 1.89D-05 BMatP= 8.24D-05
 IDIUse=3 WtCom= 9.97D-01 WtEn= 3.48D-03
 Coeff-Com: -0.303D-03-0.240D-02 0.282D-01 0.836D-01 0.366D+00 0.525D+00
 Coeff-En:   0.000D+00 0.000D+00 0.000D+00 0.000D+00 0.167D+00 0.833D+00
 Coeff:     -0.302D-03-0.239D-02 0.281D-01 0.833D-01 0.365D+00 0.526D+00
 Gap=     0.211 Goal=   None    Shift=    0.000
 RMSDP=2.62D-05 MaxDP=7.80D-04 DE=-5.84D-05 OVMax= 9.23D-04

 Cycle   7  Pass 0  IDiag  1:
 E= -422.030102528069     Delta-E=       -0.000015340035 Rises=F Damp=F
 DIIS: error= 4.48D-05 at cycle   7 NSaved=   7.
 NSaved= 7 IEnMin= 7 EnMin= -422.030102528069     IErMin= 7 ErrMin= 4.48D-05
 ErrMax= 4.48D-05  0.00D+00 EMaxC= 1.00D-01 BMatC= 3.08D-07 BMatP= 1.89D-05
 IDIUse=1 WtCom= 1.00D+00 WtEn= 0.00D+00
 Coeff-Com:  0.440D-05-0.180D-02 0.861D-02 0.270D-01 0.140D+00 0.220D+00
 Coeff-Com:  0.606D+00
 Coeff:      0.440D-05-0.180D-02 0.861D-02 0.270D-01 0.140D+00 0.220D+00
 Coeff:      0.606D+00
 Gap=     0.211 Goal=   None    Shift=    0.000
 RMSDP=4.59D-06 MaxDP=1.73D-04 DE=-1.53D-05 OVMax= 2.75D-04

 Initial convergence to 1.0D-05 achieved.  Increase integral accuracy.
 Cycle   8  Pass 1  IDiag  1:
 E= -422.030102508472     Delta-E=        0.000000019598 Rises=F Damp=F
 DIIS: error= 2.09D-05 at cycle   1 NSaved=   1.
 NSaved= 1 IEnMin= 1 EnMin= -422.030102508472     IErMin= 1 ErrMin= 2.09D-05
 ErrMax= 2.09D-05  0.00D+00 EMaxC= 1.00D-01 BMatC= 8.73D-08 BMatP= 8.73D-08
 IDIUse=1 WtCom= 1.00D+00 WtEn= 0.00D+00
 Coeff-Com:  0.100D+01
 Coeff:      0.100D+01
 Gap=     0.211 Goal=   None    Shift=    0.000
 RMSDP=4.59D-06 MaxDP=1.73D-04 DE= 1.96D-08 OVMax= 3.58D-04

 Cycle   9  Pass 1  IDiag  1:
 E= -422.030102298028     Delta-E=        0.000000210444 Rises=F Damp=F
 DIIS: error= 4.30D-05 at cycle   2 NSaved=   2.
 NSaved= 2 IEnMin= 1 EnMin= -422.030102508472     IErMin= 1 ErrMin= 2.09D-05
 ErrMax= 4.30D-05  0.00D+00 EMaxC= 1.00D-01 BMatC= 2.76D-07 BMatP= 8.73D-08
 IDIUse=1 WtCom= 1.00D+00 WtEn= 0.00D+00
 Coeff-Com:  0.642D+00 0.358D+00
 Coeff:      0.642D+00 0.358D+00
 Gap=     0.211 Goal=   None    Shift=    0.000
 RMSDP=3.40D-06 MaxDP=1.17D-04 DE= 2.10D-07 OVMax= 2.48D-04

 Cycle  10  Pass 1  IDiag  1:
 E= -422.030102605387     Delta-E=       -0.000000307360 Rises=F Damp=F
 DIIS: error= 3.64D-06 at cycle   3 NSaved=   3.
 NSaved= 3 IEnMin= 3 EnMin= -422.030102605387     IErMin= 3 ErrMin= 3.64D-06
 ErrMax= 3.64D-06  0.00D+00 EMaxC= 1.00D-01 BMatC= 2.50D-09 BMatP= 8.73D-08
 IDIUse=1 WtCom= 1.00D+00 WtEn= 0.00D+00
 Coeff-Com:  0.293D+00 0.177D+00 0.530D+00
 Coeff:      0.293D+00 0.177D+00 0.530D+00
 Gap=     0.211 Goal=   None    Shift=    0.000
 RMSDP=3.55D-07 MaxDP=1.32D-05 DE=-3.07D-07 OVMax= 2.37D-05

 Cycle  11  Pass 1  IDiag  1:
 E= -422.030102607680     Delta-E=       -0.000000002293 Rises=F Damp=F
 DIIS: error= 1.06D-06 at cycle   4 NSaved=   4.
 NSaved= 4 IEnMin= 4 EnMin= -422.030102607680     IErMin= 4 ErrMin= 1.06D-06
 ErrMax= 1.06D-06  0.00D+00 EMaxC= 1.00D-01 BMatC= 2.92D-10 BMatP= 2.50D-09
 IDIUse=1 WtCom= 1.00D+00 WtEn= 0.00D+00
 Coeff-Com:  0.798D-02 0.120D-01 0.260D+00 0.720D+00
 Coeff:      0.798D-02 0.120D-01 0.260D+00 0.720D+00
 Gap=     0.211 Goal=   None    Shift=    0.000
 RMSDP=1.23D-07 MaxDP=3.25D-06 DE=-2.29D-09 OVMax= 7.67D-06

 Cycle  12  Pass 1  IDiag  1:
 E= -422.030102607969     Delta-E=       -0.000000000289 Rises=F Damp=F
 DIIS: error= 5.19D-07 at cycle   5 NSaved=   5.
 NSaved= 5 IEnMin= 5 EnMin= -422.030102607969     IErMin= 5 ErrMin= 5.19D-07
 ErrMax= 5.19D-07  0.00D+00 EMaxC= 1.00D-01 BMatC= 2.38D-11 BMatP= 2.92D-10
 IDIUse=1 WtCom= 1.00D+00 WtEn= 0.00D+00
 Coeff-Com: -0.962D-02-0.169D-02 0.106D+00 0.370D+00 0.536D+00
 Coeff:     -0.962D-02-0.169D-02 0.106D+00 0.370D+00 0.536D+00
 Gap=     0.211 Goal=   None    Shift=    0.000
 RMSDP=4.26D-08 MaxDP=1.12D-06 DE=-2.89D-10 OVMax= 3.13D-06

 Cycle  13  Pass 1  IDiag  1:
 E= -422.030102607994     Delta-E=       -0.000000000025 Rises=F Damp=F
 DIIS: error= 1.91D-07 at cycle   6 NSaved=   6.
 NSaved= 6 IEnMin= 6 EnMin= -422.030102607994     IErMin= 6 ErrMin= 1.91D-07
 ErrMax= 1.91D-07  0.00D+00 EMaxC= 1.00D-01 BMatC= 4.12D-12 BMatP= 2.38D-11
 IDIUse=1 WtCom= 1.00D+00 WtEn= 0.00D+00
 Coeff-Com: -0.617D-02-0.195D-02 0.327D-01 0.134D+00 0.319D+00 0.522D+00
 Coeff:     -0.617D-02-0.195D-02 0.327D-01 0.134D+00 0.319D+00 0.522D+00
 Gap=     0.211 Goal=   None    Shift=    0.000
 RMSDP=1.60D-08 MaxDP=5.34D-07 DE=-2.51D-11 OVMax= 1.52D-06

 Cycle  14  Pass 1  IDiag  1:
 E= -422.030102607998     Delta-E=       -0.000000000004 Rises=F Damp=F
 DIIS: error= 4.47D-08 at cycle   7 NSaved=   7.
 NSaved= 7 IEnMin= 7 EnMin= -422.030102607998     IErMin= 7 ErrMin= 4.47D-08
 ErrMax= 4.47D-08  0.00D+00 EMaxC= 1.00D-01 BMatC= 3.90D-13 BMatP= 4.12D-12
 IDIUse=1 WtCom= 1.00D+00 WtEn= 0.00D+00
 Coeff-Com: -0.245D-02-0.972D-03 0.323D-02 0.227D-01 0.104D+00 0.285D+00
 Coeff-Com:  0.588D+00
 Coeff:     -0.245D-02-0.972D-03 0.323D-02 0.227D-01 0.104D+00 0.285D+00
 Coeff:      0.588D+00
 Gap=     0.211 Goal=   None    Shift=    0.000
 RMSDP=4.14D-09 MaxDP=1.11D-07 DE=-4.43D-12 OVMax= 3.45D-07

 SCF Done:  E(RB3LYP) =  -422.030102608     A.U. after   14 cycles
            NFock= 14  Conv=0.41D-08     -V/T= 2.0066
 KE= 4.192427621708D+02 PE=-1.849527609341D+03 EE= 5.756961146036D+02
 Leave Link  502 at Fri Sep  3 14:44:05 2021, MaxMem=   104857600 cpu:              80.5 elap:              80.6
 (Enter /home/jsteffen/Software/g16/l801.exe)
 DoSCS=F DFT=T ScalE2(SS,OS)=  1.000000  1.000000
 Range of M.O.s used for correlation:     1   166
 NBasis=   166 NAE=    33 NBE=    33 NFC=     0 NFV=     0
 NROrb=    166 NOA=    33 NOB=    33 NVA=   133 NVB=   133

 **** Warning!!: The largest alpha MO coefficient is  0.10212342D+02

 Leave Link  801 at Fri Sep  3 14:44:06 2021, MaxMem=   104857600 cpu:               0.0 elap:               0.0
 (Enter /home/jsteffen/Software/g16/l1101.exe)
 Using compressed storage, NAtomX=    17.
 Will process     18 centers per pass.
 R6Disp: Adding Grimme-D3 dispersion energy 1st derivatives to the gradient.
 Leave Link 1101 at Fri Sep  3 14:44:06 2021, MaxMem=   104857600 cpu:               0.2 elap:               0.2
 (Enter /home/jsteffen/Software/g16/l1102.exe)
 Symmetrizing basis deriv contribution to polar:
 IMax=3 JMax=2 DiffMx= 0.00D+00
 Leave Link 1102 at Fri Sep  3 14:44:06 2021, MaxMem=   104857600 cpu:               0.0 elap:               0.0
 (Enter /home/jsteffen/Software/g16/l1110.exe)
 Forming Gx(P) for the SCF density, NAtomX=    17.
 Integral derivatives from FoFJK, PRISM(SPDF).
 Do as many integral derivatives as possible in FoFJK.
 G2DrvN: MDV=     104856240.
 G2DrvN: will do    18 centers at a time, making    1 passes.
 Calling FoFCou, ICntrl=  3107 FMM=F I1Cent=   0 AccDes= 0.00D+00.
 FoFJK:  IHMeth= 1 ICntrl=    3107 DoSepK=F KAlg= 0 I1Cent=           0 FoldK=F
 IRaf=         0 NMat=       1 IRICut=       1 DoRegI=T DoRafI=F ISym2E= 0 IDoP0=0 IntGTp=1.
 FoFCou: FMM=F IPFlag=           0 FMFlag=      100000 FMFlg1=           0
         NFxFlg=           0 DoJE=F BraDBF=F KetDBF=F FulRan=T
         wScrn=  0.000000 ICntrl=      3107 IOpCl=  0 I1Cent=           0 NGrid=           0
         NMat0=    1 NMatS0=      1 NMatT0=    0 NMatD0=    1 NMtDS0=    0 NMtDT0=    0
 Symmetry not used in FoFCou.
 End of G2Drv F.D. properties file   721 does not exist.
 End of G2Drv F.D. properties file   722 does not exist.
 End of G2Drv F.D. properties file   788 does not exist.
 Leave Link 1110 at Fri Sep  3 14:47:49 2021, MaxMem=   104857600 cpu:             222.4 elap:             222.8
 (Enter /home/jsteffen/Software/g16/l1002.exe)
 Minotr:  Closed shell wavefunction.
          IDoAtm=11111111111111111
          Direct CPHF calculation.
          Differentiating once with respect to electric field.
                with respect to dipole field.
          Differentiating once with respect to nuclear coordinates.
          Requested convergence is 1.0D-08 RMS, and 1.0D-07 maximum.
          Secondary convergence is 1.0D-12 RMS, and 1.0D-12 maximum.
          NewPWx=T KeepS1=F KeepF1=F KeepIn=T MapXYZ=F SortEE=F KeepMc=T.
         5081 words used for storage of precomputed grid.
 Keep R1 ints in memory in canonical form, NReq=98804652.
 FoFCou: FMM=F IPFlag=           0 FMFlag=           0 FMFlg1=           0
         NFxFlg=           0 DoJE=F BraDBF=F KetDBF=F FulRan=T
         wScrn=  0.000000 ICntrl=       600 IOpCl=  0 I1Cent=           0 NGrid=           0
         NMat0=    1 NMatS0=  13861 NMatT0=    0 NMatD0=    1 NMtDS0=    0 NMtDT0=    0
 Symmetry not used in FoFCou.
 Two-electron integral symmetry not used.
          MDV=     104857600 using IRadAn=       1.
          Solving linear equations simultaneously, MaxMat=       0.
          There are    54 degrees of freedom in the 1st order CPHF.  IDoFFX=6 NUNeed=     3.
     51 vectors produced by pass  0 Test12= 8.13D-15 1.85D-09 XBig12= 1.21D+02 6.43D+00.
 AX will form    51 AO Fock derivatives at one time.
     51 vectors produced by pass  1 Test12= 8.13D-15 1.85D-09 XBig12= 3.13D+01 1.06D+00.
     51 vectors produced by pass  2 Test12= 8.13D-15 1.85D-09 XBig12= 2.77D-01 7.50D-02.
     51 vectors produced by pass  3 Test12= 8.13D-15 1.85D-09 XBig12= 9.14D-04 4.90D-03.
     51 vectors produced by pass  4 Test12= 8.13D-15 1.85D-09 XBig12= 1.46D-06 1.71D-04.
     38 vectors produced by pass  5 Test12= 8.13D-15 1.85D-09 XBig12= 8.75D-10 3.98D-06.
      5 vectors produced by pass  6 Test12= 8.13D-15 1.85D-09 XBig12= 5.01D-13 1.15D-07.
      2 vectors produced by pass  7 Test12= 8.13D-15 1.85D-09 XBig12= 3.36D-16 2.52D-09.
 InvSVY:  IOpt=1 It=  1 EMax= 5.33D-15
 Solved reduced A of dimension   300 with    54 vectors.
 FullF1:  Do perturbations      1 to       3.
 Isotropic polarizability for W=    0.000000       79.84 Bohr**3.
 End of Minotr F.D. properties file   721 does not exist.
 End of Minotr F.D. properties file   722 does not exist.
 End of Minotr F.D. properties file   788 does not exist.
 Leave Link 1002 at Fri Sep  3 14:51:41 2021, MaxMem=   104857600 cpu:             231.0 elap:             231.6
 (Enter /home/jsteffen/Software/g16/l601.exe)
 Copying SCF densities to generalized density rwf, IOpCl= 0 IROHF=0.

 **********************************************************************

            Population analysis using the SCF density.

 **********************************************************************

 Orbital symmetries:
       Occupied  (A) (A) (A) (A) (A) (A) (A) (A) (A) (A) (A) (A)
                 (A) (A) (A) (A) (A) (A) (A) (A) (A) (A) (A) (A)
                 (A) (A) (A) (A) (A) (A) (A) (A) (A)
       Virtual   (A) (A) (A) (A) (A) (A) (A) (A) (A) (A) (A) (A)
                 (A) (A) (A) (A) (A) (A) (A) (A) (A) (A) (A) (A)
                 (A) (A) (A) (A) (A) (A) (A) (A) (A) (A) (A) (A)
                 (A) (A) (A) (A) (A) (A) (A) (A) (A) (A) (A) (A)
                 (A) (A) (A) (A) (A) (A) (A) (A) (A) (A) (A) (A)
                 (A) (A) (A) (A) (A) (A) (A) (A) (A) (A) (A) (A)
                 (A) (A) (A) (A) (A) (A) (A) (A) (A) (A) (A) (A)
                 (A) (A) (A) (A) (A) (A) (A) (A) (A) (A) (A) (A)
                 (A) (A) (A) (A) (A) (A) (A) (A) (A) (A) (A) (A)
                 (A) (A) (A) (A) (A) (A) (A) (A) (A) (A) (A) (A)
                 (A) (A) (A) (A) (A) (A) (A) (A) (A) (A) (A) (A)
                 (A)
 The electronic state is 1-A.
 Alpha  occ. eigenvalues --  -19.18319 -19.16208 -10.25350 -10.24427 -10.24129
 Alpha  occ. eigenvalues --  -10.19017 -10.18343 -10.18288 -10.18163  -1.08173
 Alpha  occ. eigenvalues --   -1.04766  -0.84586  -0.75651  -0.74125  -0.69949
 Alpha  occ. eigenvalues --   -0.60553  -0.60412  -0.55058  -0.52030  -0.48605
 Alpha  occ. eigenvalues --   -0.47671  -0.45403  -0.44436  -0.42383  -0.40749
 Alpha  occ. eigenvalues --   -0.38837  -0.37846  -0.34641  -0.34402  -0.33861
 Alpha  occ. eigenvalues --   -0.32137  -0.23921  -0.20749
 Alpha virt. eigenvalues --    0.00357   0.01341   0.05571   0.06117   0.08436
 Alpha virt. eigenvalues --    0.10690   0.11803   0.12567   0.12899   0.14730
 Alpha virt. eigenvalues --    0.15558   0.16921   0.21326   0.25043   0.28741
 Alpha virt. eigenvalues --    0.30674   0.31979   0.35311   0.42971   0.43451
 Alpha virt. eigenvalues --    0.43887   0.44913   0.47024   0.47660   0.49764
 Alpha virt. eigenvalues --    0.50929   0.52203   0.52786   0.53558   0.53780
 Alpha virt. eigenvalues --    0.55098   0.55733   0.58087   0.60198   0.61139
 Alpha virt. eigenvalues --    0.61184   0.62638   0.63741   0.64967   0.66310
 Alpha virt. eigenvalues --    0.70180   0.70453   0.73573   0.74704   0.76956
 Alpha virt. eigenvalues --    0.84179   0.86473   0.88344   0.90218   0.91473
 Alpha virt. eigenvalues --    0.92288   0.93284   0.94629   0.97543   0.99876
 Alpha virt. eigenvalues --    1.00746   1.01837   1.04360   1.06861   1.08564
 Alpha virt. eigenvalues --    1.09707   1.11483   1.11780   1.18437   1.21149
 Alpha virt. eigenvalues --    1.22957   1.27310   1.31639   1.36141   1.37406
 Alpha virt. eigenvalues --    1.38223   1.38342   1.47223   1.48947   1.49148
 Alpha virt. eigenvalues --    1.55035   1.57177   1.57194   1.58039   1.58441
 Alpha virt. eigenvalues --    1.60193   1.62626   1.63427   1.64439   1.65889
 Alpha virt. eigenvalues --    1.65950   1.69278   1.70854   1.72328   1.75875
 Alpha virt. eigenvalues --    1.76452   1.77292   1.81061   1.81731   1.83784
 Alpha virt. eigenvalues --    1.85193   1.88462   1.89192   1.93680   1.97798
 Alpha virt. eigenvalues --    2.01092   2.03670   2.04546   2.08089   2.10806
 Alpha virt. eigenvalues --    2.16278   2.16713   2.17987   2.18645   2.23157
 Alpha virt. eigenvalues --    2.29484   2.33745   2.37059   2.39201   2.42710
 Alpha virt. eigenvalues --    2.43340   2.47533   2.53791   2.61437   2.72333
 Alpha virt. eigenvalues --    2.74594   2.81892   2.82174   2.89745   2.95657
 Alpha virt. eigenvalues --    3.01624   3.02555   3.18629   3.22457   3.30608
 Alpha virt. eigenvalues --    3.41332   3.64023   3.77863
          Condensed to atoms (all electrons):
               1          2          3          4          5          6
     1  C    4.717739   0.501713   0.008475  -0.080427   0.007939   0.505653
     2  C    0.501713   4.756104   0.517952  -0.025006  -0.073834   0.005800
     3  C    0.008475   0.517952   4.884199   0.252068   0.004897  -0.069707
     4  C   -0.080427  -0.025006   0.252068   5.175988   0.350740   0.025317
     5  C    0.007939  -0.073834   0.004897   0.350740   4.962992   0.460191
     6  C    0.505653   0.005800  -0.069707   0.025317   0.460191   4.737372
     7  H    0.389962  -0.051852   0.012268  -0.001223   0.012065  -0.054121
     8  H   -0.056473   0.361435  -0.029890   0.017952  -0.001608   0.010404
     9  H    0.009187   0.000285   0.007404  -0.044700   0.372238  -0.037090
    10  H   -0.051818   0.010336  -0.000352   0.010708  -0.044802   0.384158
    11  O    0.002891  -0.052668   0.481973  -0.088730   0.005101  -0.000069
    12  H   -0.000019   0.006416  -0.033583  -0.033917   0.002784  -0.000373
    13  O    0.000240   0.002145  -0.054828   0.386852  -0.063509   0.003574
    14  C   -0.000014  -0.000103   0.005968  -0.072481  -0.003496   0.000900
    15  H    0.000000   0.000019  -0.000290   0.004276  -0.000218  -0.000030
    16  H   -0.000023  -0.000035  -0.000074  -0.005363   0.008504   0.000039
    17  H   -0.000023  -0.000035  -0.000071  -0.005355   0.008509   0.000039
               7          8          9         10         11         12
     1  C    0.389962  -0.056473   0.009187  -0.051818   0.002891  -0.000019
     2  C   -0.051852   0.361435   0.000285   0.010336  -0.052668   0.006416
     3  C    0.012268  -0.029890   0.007404  -0.000352   0.481973  -0.033583
     4  C   -0.001223   0.017952  -0.044700   0.010708  -0.088730  -0.033917
     5  C    0.012065  -0.001608   0.372238  -0.044802   0.005101   0.002784
     6  C   -0.054121   0.010404  -0.037090   0.384158  -0.000069  -0.000373
     7  H    0.759570  -0.016605  -0.000315  -0.015899  -0.000068   0.000025
     8  H   -0.016605   0.741760   0.000049  -0.000250   0.001749  -0.000964
     9  H   -0.000315   0.000049   0.737726  -0.015723  -0.000071   0.000009
    10  H   -0.015899  -0.000250  -0.015723   0.759859   0.000003   0.000001
    11  O   -0.000068   0.001749  -0.000071   0.000003   7.475393   0.354123
    12  H    0.000025  -0.000964   0.000009   0.000001   0.354123   0.529984
    13  O    0.000004  -0.000102  -0.007411  -0.000075  -0.004453   0.032520
    14  C   -0.000001   0.000014   0.007336  -0.000017  -0.000066  -0.002179
    15  H   -0.000000  -0.000000  -0.000422  -0.000000   0.000015  -0.000459
    16  H    0.000000   0.000000   0.002006   0.000022  -0.000037   0.000305
    17  H    0.000000   0.000000   0.002008   0.000022  -0.000037   0.000305
              13         14         15         16         17
     1  C    0.000240  -0.000014   0.000000  -0.000023  -0.000023
     2  C    0.002145  -0.000103   0.000019  -0.000035  -0.000035
     3  C   -0.054828   0.005968  -0.000290  -0.000074  -0.000071
     4  C    0.386852  -0.072481   0.004276  -0.005363  -0.005355
     5  C   -0.063509  -0.003496  -0.000218   0.008504   0.008509
     6  C    0.003574   0.000900  -0.000030   0.000039   0.000039
     7  H    0.000004  -0.000001  -0.000000   0.000000   0.000000
     8  H   -0.000102   0.000014  -0.000000   0.000000   0.000000
     9  H   -0.007411   0.007336  -0.000422   0.002006   0.002008
    10  H   -0.000075  -0.000017  -0.000000   0.000022   0.000022
    11  O   -0.004453  -0.000066   0.000015  -0.000037  -0.000037
    12  H    0.032520  -0.002179  -0.000459   0.000305   0.000305
    13  O    7.758430   0.349600  -0.019117  -0.030266  -0.030271
    14  C    0.349600   4.416935   0.394251   0.387849   0.387833
    15  H   -0.019117   0.394251   0.641389  -0.028184  -0.028158
    16  H   -0.030266   0.387849  -0.028184   0.681569  -0.049344
    17  H   -0.030271   0.387833  -0.028158  -0.049344   0.681537
 Mulliken charges:
               1
     1  C    0.044996
     2  C    0.041326
     3  C    0.013591
     4  C    0.133300
     5  C   -0.008493
     6  C    0.027942
     7  H   -0.033810
     8  H   -0.027472
     9  H   -0.032516
    10  H   -0.036175
    11  O   -0.175048
    12  H    0.145023
    13  O   -0.323333
    14  C    0.127672
    15  H    0.036929
    16  H    0.033030
    17  H    0.033039
 Sum of Mulliken charges =  -0.00000
 Mulliken charges with hydrogens summed into heavy atoms:
               1
     1  C    0.011185
     2  C    0.013854
     3  C    0.013591
     4  C    0.133300
     5  C   -0.041010
     6  C   -0.008233
    11  O   -0.030026
    13  O   -0.323333
    14  C    0.230671
 APT charges:
               1
     1  C   -0.017068
     2  C   -0.056392
     3  C    0.423488
     4  C    0.430456
     5  C   -0.064102
     6  C   -0.076852
     7  H    0.021393
     8  H    0.041060
     9  H    0.043569
    10  H    0.018054
    11  O   -0.680362
    12  H    0.323598
    13  O   -0.860997
    14  C    0.551254
    15  H   -0.008946
    16  H   -0.044108
    17  H   -0.044044
 Sum of APT charges =   0.00000
 APT charges with hydrogens summed into heavy atoms:
               1
     1  C    0.004325
     2  C   -0.015333
     3  C    0.423488
     4  C    0.430456
     5  C   -0.020533
     6  C   -0.058798
    11  O   -0.356763
    13  O   -0.860997
    14  C    0.454156
 GSVD:  LWork=      -28884 too small for GESVD, short by      140270 words or      140270 for optimal perf.
 Atomic Valencies and Mayer Atomic Bond Orders:
               1          2          3          4          5          6
     1  C    4.006683   1.443676   0.018538   0.067802   0.017914   1.486360
     2  C    1.443676   3.983866   1.461421   0.003959   0.073279   0.018529
     3  C    0.018538   1.461421   4.190663   1.258542   0.002933   0.073060
     4  C    0.067802   0.003959   1.258542   3.892336   1.401197   0.027251
     5  C    0.017914   0.073279   0.002933   1.401197   3.954505   1.432753
     6  C    1.486360   0.018529   0.073060   0.027251   1.432753   4.024195
     7  H    0.936217   0.012149   0.007190   0.000288   0.007540   0.005618
     8  H   -0.003389   0.916708   0.038848   0.011322   0.000994   0.006657
     9  H    0.006202   0.000690   0.010392   0.021097   0.919673   0.007508
    10  H    0.004920   0.007443   0.000515   0.008515   0.015381   0.934174
    11  O    0.004677   0.028429   1.269489   0.002288   0.006892   0.025065
    12  H    0.001834   0.006416   0.031745  -0.012374   0.000403   0.000521
    13  O    0.017530   0.008296   0.009213   1.082927   0.034870   0.005522
    14  C    0.000524   0.001892   0.003933   0.010743   0.012837   0.000757
    15  H    0.000134   0.000123   0.001835   0.008224   0.001654   0.000115
    16  H    0.001870   0.000428   0.001503   0.000275   0.013084   0.000152
    17  H    0.001873   0.000428   0.001506   0.000281   0.013101   0.000152
               7          8          9         10         11         12
     1  C    0.936217  -0.003389   0.006202   0.004920   0.004677   0.001834
     2  C    0.012149   0.916708   0.000690   0.007443   0.028429   0.006416
     3  C    0.007190   0.038848   0.010392   0.000515   1.269489   0.031745
     4  C    0.000288   0.011322   0.021097   0.008515   0.002288  -0.012374
     5  C    0.007540   0.000994   0.919673   0.015381   0.006892   0.000403
     6  C    0.005618   0.006657   0.007508   0.934174   0.025065   0.000521
     7  H    0.967447  -0.002501   0.001901  -0.002673   0.001001   0.000387
     8  H   -0.002501   0.984930  -0.000024   0.001758   0.011813   0.000993
     9  H    0.001901  -0.000024   0.988158  -0.002974   0.000889  -0.000173
    10  H   -0.002673   0.001758  -0.002974   0.968588   0.000396  -0.000001
    11  O    0.001001   0.011813   0.000889   0.000396   2.338866   0.976871
    12  H    0.000387   0.000993  -0.000173  -0.000001   0.976871   1.070834
    13  O    0.000284   0.001149   0.001969   0.001164   0.008618   0.060412
    14  C   -0.000018   0.000536   0.013204  -0.000026   0.001614   0.002129
    15  H    0.000008   0.000048   0.001857   0.000020   0.000107   0.000101
    16  H    0.000029   0.000010   0.002971  -0.000012   0.000358   0.000786
    17  H    0.000029   0.000010   0.002975  -0.000012   0.000357   0.000785
              13         14         15         16         17
     1  C    0.017530   0.000524   0.000134   0.001870   0.001873
     2  C    0.008296   0.001892   0.000123   0.000428   0.000428
     3  C    0.009213   0.003933   0.001835   0.001503   0.001506
     4  C    1.082927   0.010743   0.008224   0.000275   0.000281
     5  C    0.034870   0.012837   0.001654   0.013084   0.013101
     6  C    0.005522   0.000757   0.000115   0.000152   0.000152
     7  H    0.000284  -0.000018   0.000008   0.000029   0.000029
     8  H    0.001149   0.000536   0.000048   0.000010   0.000010
     9  H    0.001969   0.013204   0.001857   0.002971   0.002975
    10  H    0.001164  -0.000026   0.000020  -0.000012  -0.000012
    11  O    0.008618   0.001614   0.000107   0.000358   0.000357
    12  H    0.060412   0.002129   0.000101   0.000786   0.000785
    13  O    2.277899   1.020328   0.003623   0.010997   0.010997
    14  C    1.020328   3.969321   0.976607   0.962138   0.962126
    15  H    0.003623   0.976607   0.982907  -0.005776  -0.005772
    16  H    0.010997   0.962138  -0.005776   0.977851  -0.010962
    17  H    0.010997   0.962126  -0.005772  -0.010962   0.977873
 Lowdin Atomic Charges:
               1
     1  C   -0.042779
     2  C   -0.050800
     3  C   -0.062267
     4  C   -0.076954
     5  C   -0.072496
     6  C   -0.051483
     7  H    0.031674
     8  H    0.034795
     9  H    0.030382
    10  H    0.030213
    11  O    0.061269
    12  H    0.056999
    13  O    0.052992
    14  C   -0.030621
    15  H    0.037189
    16  H    0.025946
    17  H    0.025941
 Sum of Lowdin charges  =  -0.00000
 Lowdin atomic charges with hydrogens summed into heavy atoms:
               1
     1  C   -0.011105
     2  C   -0.016005
     3  C   -0.062267
     4  C   -0.076954
     5  C   -0.042114
     6  C   -0.021270
     7  H    0.000000
     8  H    0.000000
     9  H    0.000000
    10  H    0.000000
    11  O    0.118269
    12  H    0.000000
    13  O    0.052992
    14  C    0.058455
    15  H    0.000000
    16  H    0.000000
    17  H    0.000000
 Sum of Lowdin charges  =  -0.00000
 Dipole moment from Lowdin charges (Debye):
    X=    -1.7958    Y=     1.1061    Z=     0.0001  Tot=     2.1091
 Electronic spatial extent (au):  <R**2>=           1175.6094
 Charge=             -0.0000 electrons
 Dipole moment (field-independent basis, Debye):
    X=             -2.2355    Y=             -1.4230    Z=              0.0010  Tot=              2.6500
 Quadrupole moment (field-independent basis, Debye-Ang):
   XX=            -43.5823   YY=            -51.8943   ZZ=            -55.5796
   XY=              0.2692   XZ=             -0.0019   YZ=              0.0010
 Traceless Quadrupole moment (field-independent basis, Debye-Ang):
   XX=              6.7698   YY=             -1.5422   ZZ=             -5.2275
   XY=              0.2692   XZ=             -0.0019   YZ=              0.0010
 Octapole moment (field-independent basis, Debye-Ang**2):
  XXX=            -22.4513  YYY=              0.6907  ZZZ=             -0.0010  XYY=            -10.1468
  XXY=              1.8403  XXZ=              0.0018  XZZ=             -8.3331  YZZ=              5.3717
  YYZ=              0.0021  XYZ=             -0.0014
 Hexadecapole moment (field-independent basis, Debye-Ang**3):
 XXXX=           -838.0306 YYYY=           -537.3419 ZZZZ=            -63.3802 XXXY=              7.3393
 XXXZ=             -0.0025 YYYX=            -21.4252 YYYZ=              0.0035 ZZZX=              0.0017
 ZZZY=             -0.0003 XXYY=           -223.7266 XXZZ=           -176.1265 YYZZ=           -104.9954
 XXYZ=              0.0036 YYXZ=             -0.0025 ZZXY=              2.2621
 N-N= 4.325586299590D+02 E-N=-1.849527607623D+03  KE= 4.192427621708D+02
 There are a total of      380956 grid points.
 ElSum from          density=       65.9999947469
 ElSum from atomic densities=       66.0000216470
 Hirshfeld populations at iteration   1 (CA, CB, DipXYZ):
               1          2          3          4          5
     1  C    3.025721   3.025721   0.061516  -0.004130  -0.000015
     2  C    3.029783   3.029783   0.037085   0.041556  -0.000006
     3  C    2.968785   2.968785  -0.050959   0.109854   0.000014
     4  C    2.975714   2.975714  -0.120357   0.032595  -0.000024
     5  C    3.034278   3.034278  -0.025991  -0.038326  -0.000007
     6  C    3.029009   3.029009   0.015067  -0.055712   0.000012
     7  H    0.480439   0.480439   0.145340  -0.025856  -0.000004
     8  H    0.477854   0.477854   0.098281   0.114667   0.000004
     9  H    0.481808   0.481808  -0.080473  -0.122371   0.000009
    10  H    0.481372   0.481372   0.048832  -0.139098  -0.000004
    11  O    4.095859   4.095859  -0.067391  -0.099943   0.000015
    12  H    0.420008   0.420008  -0.173714   0.055144   0.000060
    13  O    4.065516   4.065516   0.021169  -0.111773   0.000074
    14  C    2.995029   2.995029   0.030301   0.046091  -0.000016
    15  H    0.476202   0.476202  -0.134930   0.064825   0.000013
    16  H    0.481312   0.481312  -0.010966  -0.081234  -0.110630
    17  H    0.481309   0.481309  -0.010870  -0.081220   0.110653
       Tot  32.999997  32.999997  -0.218060  -0.294932   0.000148

 Dip from Atomic Chgs             -0.661436  -0.264923   0.000248
         Total Dipole             -0.879496  -0.559855   0.000396

 Hirshfeld charges, spin densities, dipoles, and CM5 charges using IRadAn=      5:
              Q-H        S-H        Dx         Dy         Dz        Q-CM5   
     1  C   -0.051443   0.000000   0.061516  -0.004130  -0.000015  -0.105631
     2  C   -0.059566   0.000000   0.037085   0.041556  -0.000006  -0.108973
     3  C    0.062430   0.000000  -0.050959   0.109854   0.000014   0.079074
     4  C    0.048573   0.000000  -0.120357   0.032595  -0.000024   0.067042
     5  C   -0.068555   0.000000  -0.025991  -0.038326  -0.000007  -0.119508
     6  C   -0.058018   0.000000   0.015067  -0.055712   0.000012  -0.112440
     7  H    0.039121   0.000000   0.145340  -0.025856  -0.000004   0.093826
     8  H    0.044291   0.000000   0.098281   0.114667   0.000004   0.101936
     9  H    0.036384   0.000000  -0.080473  -0.122371   0.000009   0.094308
    10  H    0.037256   0.000000   0.048832  -0.139098  -0.000004   0.091966
    11  O   -0.191719   0.000000  -0.067391  -0.099943   0.000015  -0.386078
    12  H    0.159983   0.000000  -0.173714   0.055144   0.000060   0.341967
    13  O   -0.131032   0.000000   0.021169  -0.111773   0.000074  -0.225883
    14  C    0.009943   0.000000   0.030301   0.046091  -0.000016  -0.108455
    15  H    0.047596   0.000000  -0.134930   0.064825   0.000013   0.106785
    16  H    0.037376   0.000000  -0.010966  -0.081234  -0.110630   0.095028
    17  H    0.037383   0.000000  -0.010870  -0.081220   0.110653   0.095041
       Tot   0.000005   0.000000  -0.218060  -0.294932   0.000148   0.000005
 Hirshfeld charges with hydrogens summed into heavy atoms:
              Q-H       Q-CM5   
     1  C   -0.012321  -0.011805
     2  C   -0.015275  -0.007036
     3  C    0.062430   0.079074
     4  C    0.048573   0.067042
     5  C   -0.032171  -0.025199
     6  C   -0.020762  -0.020474
    11  O   -0.031735  -0.044111
    13  O   -0.131032  -0.225883
    14  C    0.132298   0.188399
 
 EQQ=  0.00000000000     EQD=  0.00000000000     EDD= 0.428590921684E-02
 EQQ+QD+DD= 0.428590921684E-02
 
  Exact polarizability: 109.200  -1.271  92.210  -0.000   0.002  38.095
 Approx polarizability: 163.490  -6.615 158.629   0.001   0.001  57.459
 No NMR shielding tensors so no spin-rotation constants.
 Leave Link  601 at Fri Sep  3 14:51:46 2021, MaxMem=   104857600 cpu:               4.3 elap:               4.4
 (Enter /home/jsteffen/Software/g16/l607.exe)
 ******************************Gaussian NBO Version 3.1******************************
             N A T U R A L   A T O M I C   O R B I T A L   A N D
          N A T U R A L   B O N D   O R B I T A L   A N A L Y S I S
 ******************************Gaussian NBO Version 3.1******************************

       /RESON  / : Allow strongly delocalized NBO set
       /BNDIDX / : Print bond indices based on the NAO density matrix

 Analyzing the SCF density

 Job title: Title Card Required                                             

 Storage needed:     83718 in NPA,    111025 in NBO ( 104855985 available)
 GSVD:  LWork=       17482 too small for GESVD, short by        2045 words or        2045 for optimal perf.


 NATURAL POPULATIONS:  Natural atomic orbital occupancies 
                                                          
   NAO  Atom  No  lang   Type(AO)    Occupancy      Energy
 ----------------------------------------------------------
     1    C    1  S      Cor( 1S)     1.99899     -10.04543
     2    C    1  S      Val( 2S)     0.95841      -0.13957
     3    C    1  S      Ryd( 3S)     0.00087       1.00060
     4    C    1  px     Val( 2p)     1.18367      -0.04269
     5    C    1  px     Ryd( 3p)     0.00585       0.98409
     6    C    1  py     Val( 2p)     1.06051      -0.02192
     7    C    1  py     Ryd( 3p)     0.00379       0.62582
     8    C    1  pz     Val( 2p)     1.01912      -0.09223
     9    C    1  pz     Ryd( 3p)     0.00100       0.56315
    10    C    1  dxy    Ryd( 3d)     0.00060       2.03676
    11    C    1  dxz    Ryd( 3d)     0.00046       1.46942
    12    C    1  dyz    Ryd( 3d)     0.00077       1.52567
    13    C    1  dx2y2  Ryd( 3d)     0.00064       2.23513
    14    C    1  dz2    Ryd( 3d)     0.00033       1.91188
 
    15    C    2  S      Cor( 1S)     1.99893     -10.04329
    16    C    2  S      Val( 2S)     0.96232      -0.14036
    17    C    2  S      Ryd( 3S)     0.00110       1.01273
    18    C    2  px     Val( 2p)     1.10720      -0.03777
    19    C    2  px     Ryd( 3p)     0.00460       0.73737
    20    C    2  py     Val( 2p)     1.14724      -0.03876
    21    C    2  py     Ryd( 3p)     0.00580       0.86942
    22    C    2  pz     Val( 2p)     1.04618      -0.09524
    23    C    2  pz     Ryd( 3p)     0.00119       0.56421
    24    C    2  dxy    Ryd( 3d)     0.00050       2.25964
    25    C    2  dxz    Ryd( 3d)     0.00075       1.51190
    26    C    2  dyz    Ryd( 3d)     0.00057       1.49298
    27    C    2  dx2y2  Ryd( 3d)     0.00061       2.01428
    28    C    2  dz2    Ryd( 3d)     0.00032       1.92945
 
    29    C    3  S      Cor( 1S)     1.99861     -10.11358
    30    C    3  S      Val( 2S)     0.82251      -0.10410
    31    C    3  S      Ryd( 3S)     0.00155       1.00358
    32    C    3  px     Val( 2p)     1.05033      -0.04215
    33    C    3  px     Ryd( 3p)     0.00447       0.79890
    34    C    3  py     Val( 2p)     0.78505      -0.02271
    35    C    3  py     Ryd( 3p)     0.01056       0.74556
    36    C    3  pz     Val( 2p)     1.00036      -0.10589
    37    C    3  pz     Ryd( 3p)     0.00075       0.58514
    38    C    3  dxy    Ryd( 3d)     0.00168       2.04361
    39    C    3  dxz    Ryd( 3d)     0.00123       1.48746
    40    C    3  dyz    Ryd( 3d)     0.00283       1.47326
    41    C    3  dx2y2  Ryd( 3d)     0.00188       2.07048
    42    C    3  dz2    Ryd( 3d)     0.00066       1.93445
 
    43    C    4  S      Cor( 1S)     1.99859     -10.11611
    44    C    4  S      Val( 2S)     0.82758      -0.11223
    45    C    4  S      Ryd( 3S)     0.00190       1.00870
    46    C    4  px     Val( 2p)     0.75973      -0.02450
    47    C    4  px     Ryd( 3p)     0.00773       0.79778
    48    C    4  py     Val( 2p)     1.08002      -0.04974
    49    C    4  py     Ryd( 3p)     0.00553       0.83098
    50    C    4  pz     Val( 2p)     1.04783      -0.11595
    51    C    4  pz     Ryd( 3p)     0.00089       0.58725
    52    C    4  dxy    Ryd( 3d)     0.00159       2.06895
    53    C    4  dxz    Ryd( 3d)     0.00263       1.46201
    54    C    4  dyz    Ryd( 3d)     0.00099       1.50888
    55    C    4  dx2y2  Ryd( 3d)     0.00147       2.08756
    56    C    4  dz2    Ryd( 3d)     0.00061       1.93710
 
    57    C    5  S      Cor( 1S)     1.99893     -10.05090
    58    C    5  S      Val( 2S)     0.95710      -0.14589
    59    C    5  S      Ryd( 3S)     0.00109       1.01491
    60    C    5  px     Val( 2p)     1.13297      -0.04889
    61    C    5  px     Ryd( 3p)     0.00383       0.83267
    62    C    5  py     Val( 2p)     1.13598      -0.04873
    63    C    5  py     Ryd( 3p)     0.00457       0.83374
    64    C    5  pz     Val( 2p)     1.06652      -0.10545
    65    C    5  pz     Ryd( 3p)     0.00121       0.56531
    66    C    5  dxy    Ryd( 3d)     0.00056       2.25041
    67    C    5  dxz    Ryd( 3d)     0.00059       1.48692
    68    C    5  dyz    Ryd( 3d)     0.00075       1.50360
    69    C    5  dx2y2  Ryd( 3d)     0.00049       2.05198
    70    C    5  dz2    Ryd( 3d)     0.00033       1.93518
 
    71    C    6  S      Cor( 1S)     1.99899     -10.04512
    72    C    6  S      Val( 2S)     0.95499      -0.13858
    73    C    6  S      Ryd( 3S)     0.00099       1.00371
    74    C    6  px     Val( 2p)     1.06239      -0.02340
    75    C    6  px     Ryd( 3p)     0.00411       0.65482
    76    C    6  py     Val( 2p)     1.17531      -0.04249
    77    C    6  py     Ryd( 3p)     0.00582       0.95231
    78    C    6  pz     Val( 2p)     1.03611      -0.09366
    79    C    6  pz     Ryd( 3p)     0.00133       0.56217
    80    C    6  dxy    Ryd( 3d)     0.00059       2.10321
    81    C    6  dxz    Ryd( 3d)     0.00068       1.51912
    82    C    6  dyz    Ryd( 3d)     0.00046       1.47463
    83    C    6  dx2y2  Ryd( 3d)     0.00065       2.16176
    84    C    6  dz2    Ryd( 3d)     0.00032       1.92185
 
    85    H    7  S      Val( 1S)     0.76922       0.08502
    86    H    7  S      Ryd( 2S)     0.00170       0.32705
    87    H    7  px     Ryd( 2p)     0.00086       2.22390
    88    H    7  py     Ryd( 2p)     0.00012       1.93403
    89    H    7  pz     Ryd( 2p)     0.00024       1.56917
 
    90    H    8  S      Val( 1S)     0.75988       0.08578
    91    H    8  S      Ryd( 2S)     0.00221       0.33098
    92    H    8  px     Ryd( 2p)     0.00041       2.04891
    93    H    8  py     Ryd( 2p)     0.00057       2.12152
    94    H    8  pz     Ryd( 2p)     0.00020       1.57534
 
    95    H    9  S      Val( 1S)     0.76678       0.07029
    96    H    9  S      Ryd( 2S)     0.00161       0.35358
    97    H    9  px     Ryd( 2p)     0.00039       2.08481
    98    H    9  py     Ryd( 2p)     0.00058       2.10067
    99    H    9  pz     Ryd( 2p)     0.00026       1.56525
 
   100    H   10  S      Val( 1S)     0.77027       0.08326
   101    H   10  S      Ryd( 2S)     0.00173       0.32529
   102    H   10  px     Ryd( 2p)     0.00019       1.96398
   103    H   10  py     Ryd( 2p)     0.00080       2.20099
   104    H   10  pz     Ryd( 2p)     0.00025       1.56898
 
   105    O   11  S      Cor( 1S)     1.99978     -18.95918
   106    O   11  S      Val( 2S)     1.65965      -0.89234
   107    O   11  S      Ryd( 3S)     0.00015       2.12310
   108    O   11  px     Val( 2p)     1.54118      -0.29017
   109    O   11  px     Ryd( 3p)     0.00198       1.30920
   110    O   11  py     Val( 2p)     1.61190      -0.32171
   111    O   11  py     Ryd( 3p)     0.00134       1.05522
   112    O   11  pz     Val( 2p)     1.86397      -0.30295
   113    O   11  pz     Ryd( 3p)     0.00191       1.00373
   114    O   11  dxy    Ryd( 3d)     0.00095       3.02525
   115    O   11  dxz    Ryd( 3d)     0.00032       2.75438
   116    O   11  dyz    Ryd( 3d)     0.00110       2.74550
   117    O   11  dx2y2  Ryd( 3d)     0.00150       3.29716
   118    O   11  dz2    Ryd( 3d)     0.00071       3.03210
 
   119    H   12  S      Val( 1S)     0.51017       0.10206
   120    H   12  S      Ryd( 2S)     0.00283       0.43191
   121    H   12  px     Ryd( 2p)     0.00262       2.32742
   122    H   12  py     Ryd( 2p)     0.00096       1.75940
   123    H   12  pz     Ryd( 2p)     0.00168       1.48349
 
   124    O   13  S      Cor( 1S)     1.99972     -18.98152
   125    O   13  S      Val( 2S)     1.59353      -0.88053
   126    O   13  S      Ryd( 3S)     0.00040       2.10447
   127    O   13  px     Val( 2p)     1.40322      -0.32165
   128    O   13  px     Ryd( 3p)     0.00092       1.35560
   129    O   13  py     Val( 2p)     1.71034      -0.34139
   130    O   13  py     Ryd( 3p)     0.00241       1.28737
   131    O   13  pz     Val( 2p)     1.85998      -0.31962
   132    O   13  pz     Ryd( 3p)     0.00226       1.07977
   133    O   13  dxy    Ryd( 3d)     0.00121       3.08541
   134    O   13  dxz    Ryd( 3d)     0.00037       2.76016
   135    O   13  dyz    Ryd( 3d)     0.00081       2.68005
   136    O   13  dx2y2  Ryd( 3d)     0.00092       3.00865
   137    O   13  dz2    Ryd( 3d)     0.00061       2.86722
 
   138    C   14  S      Cor( 1S)     1.99935     -10.15036
   139    C   14  S      Val( 2S)     1.10731      -0.28266
   140    C   14  S      Ryd( 3S)     0.00156       1.07373
   141    C   14  px     Val( 2p)     0.95288      -0.08935
   142    C   14  px     Ryd( 3p)     0.00289       0.64118
   143    C   14  py     Val( 2p)     0.97571      -0.08376
   144    C   14  py     Ryd( 3p)     0.00326       0.51427
   145    C   14  pz     Val( 2p)     1.20342      -0.09909
   146    C   14  pz     Ryd( 3p)     0.00036       0.52272
   147    C   14  dxy    Ryd( 3d)     0.00174       1.80770
   148    C   14  dxz    Ryd( 3d)     0.00096       1.53929
   149    C   14  dyz    Ryd( 3d)     0.00112       1.88106
   150    C   14  dx2y2  Ryd( 3d)     0.00120       1.72080
   151    C   14  dz2    Ryd( 3d)     0.00078       1.80209
 
   152    H   15  S      Val( 1S)     0.78596       0.04942
   153    H   15  S      Ryd( 2S)     0.00081       0.31366
   154    H   15  px     Ryd( 2p)     0.00065       2.03135
   155    H   15  py     Ryd( 2p)     0.00029       1.71606
   156    H   15  pz     Ryd( 2p)     0.00025       1.62236
 
   157    H   16  S      Val( 1S)     0.80610       0.03296
   158    H   16  S      Ryd( 2S)     0.00280       0.36672
   159    H   16  px     Ryd( 2p)     0.00017       1.62676
   160    H   16  py     Ryd( 2p)     0.00038       1.81255
   161    H   16  pz     Ryd( 2p)     0.00070       1.98142
 
   162    H   17  S      Val( 1S)     0.80610       0.03297
   163    H   17  S      Ryd( 2S)     0.00280       0.36675
   164    H   17  px     Ryd( 2p)     0.00017       1.62668
   165    H   17  py     Ryd( 2p)     0.00038       1.81243
   166    H   17  pz     Ryd( 2p)     0.00070       1.98157

 WARNING:  1 low occupancy (<1.9990e) core orbital  found on  C    1
           1 low occupancy (<1.9990e) core orbital  found on  C    2
           1 low occupancy (<1.9990e) core orbital  found on  C    3
           1 low occupancy (<1.9990e) core orbital  found on  C    4
           1 low occupancy (<1.9990e) core orbital  found on  C    5
           1 low occupancy (<1.9990e) core orbital  found on  C    6


 Summary of Natural Population Analysis:                  
                                                          
                                       Natural Population 
                Natural  -----------------------------------------------
    Atom  No    Charge         Core      Valence    Rydberg      Total
 -----------------------------------------------------------------------
      C    1   -0.23500      1.99899     4.22171    0.01429     6.23500
      C    2   -0.27731      1.99893     4.26294    0.01544     6.27731
      C    3    0.31751      1.99861     3.65825    0.02563     5.68249
      C    4    0.26290      1.99859     3.71517    0.02335     5.73710
      C    5   -0.30489      1.99893     4.29257    0.01339     6.30489
      C    6   -0.24275      1.99899     4.22881    0.01495     6.24275
      H    7    0.22787      0.00000     0.76922    0.00292     0.77213
      H    8    0.23671      0.00000     0.75988    0.00340     0.76329
      H    9    0.23039      0.00000     0.76678    0.00284     0.76961
      H   10    0.22676      0.00000     0.77027    0.00297     0.77324
      O   11   -0.68645      1.99978     6.67670    0.00997     8.68645
      H   12    0.48174      0.00000     0.51017    0.00809     0.51826
      O   13   -0.57669      1.99972     6.56706    0.00991     8.57669
      C   14   -0.25255      1.99935     4.23932    0.01387     6.25255
      H   15    0.21204      0.00000     0.78596    0.00201     0.78796
      H   16    0.18986      0.00000     0.80610    0.00404     0.81014
      H   17    0.18986      0.00000     0.80610    0.00404     0.81014
 =======================================================================
   * Total *    0.00000     17.99189    47.83699    0.17111    66.00000

                                 Natural Population      
 --------------------------------------------------------
   Core                      17.99189 ( 99.9550% of  18)
   Valence                   47.83699 ( 99.6604% of  48)
   Natural Minimal Basis     65.82889 ( 99.7407% of  66)
   Natural Rydberg Basis      0.17111 (  0.2593% of  66)
 --------------------------------------------------------

    Atom  No          Natural Electron Configuration
 ----------------------------------------------------------------------------
      C    1      [core]2S( 0.96)2p( 3.26)3p( 0.01)
      C    2      [core]2S( 0.96)2p( 3.30)3p( 0.01)
      C    3      [core]2S( 0.82)2p( 2.84)3p( 0.02)3d( 0.01)
      C    4      [core]2S( 0.83)2p( 2.89)3p( 0.01)3d( 0.01)
      C    5      [core]2S( 0.96)2p( 3.34)3p( 0.01)
      C    6      [core]2S( 0.95)2p( 3.27)3p( 0.01)
      H    7            1S( 0.77)
      H    8            1S( 0.76)
      H    9            1S( 0.77)
      H   10            1S( 0.77)
      O   11      [core]2S( 1.66)2p( 5.02)3p( 0.01)
      H   12            1S( 0.51)2p( 0.01)
      O   13      [core]2S( 1.59)2p( 4.97)3p( 0.01)
      C   14      [core]2S( 1.11)2p( 3.13)3p( 0.01)3d( 0.01)
      H   15            1S( 0.79)
      H   16            1S( 0.81)
      H   17            1S( 0.81)


 Wiberg bond index matrix in the NAO basis:                                    

     Atom    1       2       3       4       5       6       7       8       9
     ---- ------  ------  ------  ------  ------  ------  ------  ------  ------
   1.  C  0.0000  1.4112  0.0148  0.0933  0.0144  1.4546  0.9167  0.0044  0.0097
   2.  C  1.4112  0.0000  1.4020  0.0187  0.0966  0.0148  0.0033  0.9104  0.0005
   3.  C  0.0148  1.4020  0.0000  1.2849  0.0160  0.0972  0.0093  0.0034  0.0090
   4.  C  0.0933  0.0187  1.2849  0.0000  1.4153  0.0196  0.0005  0.0101  0.0029
   5.  C  0.0144  0.0966  0.0160  1.4153  0.0000  1.3954  0.0104  0.0005  0.9118
   6.  C  1.4546  0.0148  0.0972  0.0196  1.3954  0.0000  0.0036  0.0098  0.0049
   7.  H  0.9167  0.0033  0.0093  0.0005  0.0104  0.0036  0.0000  0.0031  0.0005
   8.  H  0.0044  0.9104  0.0034  0.0101  0.0005  0.0098  0.0031  0.0000  0.0004
   9.  H  0.0097  0.0005  0.0090  0.0029  0.9118  0.0049  0.0005  0.0004  0.0000
  10.  H  0.0038  0.0105  0.0005  0.0092  0.0032  0.9173  0.0029  0.0005  0.0028
  11.  O  0.0085  0.0603  1.0259  0.0519  0.0096  0.0281  0.0004  0.0041  0.0015
  12.  H  0.0006  0.0112  0.0027  0.0030  0.0016  0.0001  0.0004  0.0001  0.0000
  13.  O  0.0201  0.0116  0.0322  0.9635  0.0616  0.0085  0.0003  0.0006  0.0041
  14.  C  0.0003  0.0009  0.0120  0.0120  0.0027  0.0006  0.0000  0.0006  0.0017
  15.  H  0.0001  0.0002  0.0001  0.0081  0.0009  0.0000  0.0000  0.0000  0.0000
  16.  H  0.0012  0.0002  0.0008  0.0009  0.0039  0.0001  0.0000  0.0000  0.0002
  17.  H  0.0012  0.0002  0.0008  0.0009  0.0039  0.0001  0.0000  0.0000  0.0002

     Atom   10      11      12      13      14      15      16      17
     ---- ------  ------  ------  ------  ------  ------  ------  ------
   1.  C  0.0038  0.0085  0.0006  0.0201  0.0003  0.0001  0.0012  0.0012
   2.  C  0.0105  0.0603  0.0112  0.0116  0.0009  0.0002  0.0002  0.0002
   3.  C  0.0005  1.0259  0.0027  0.0322  0.0120  0.0001  0.0008  0.0008
   4.  C  0.0092  0.0519  0.0030  0.9635  0.0120  0.0081  0.0009  0.0009
   5.  C  0.0032  0.0096  0.0016  0.0616  0.0027  0.0009  0.0039  0.0039
   6.  C  0.9173  0.0281  0.0001  0.0085  0.0006  0.0000  0.0001  0.0001
   7.  H  0.0029  0.0004  0.0004  0.0003  0.0000  0.0000  0.0000  0.0000
   8.  H  0.0005  0.0041  0.0001  0.0006  0.0006  0.0000  0.0000  0.0000
   9.  H  0.0028  0.0015  0.0000  0.0041  0.0017  0.0000  0.0002  0.0002
  10.  H  0.0000  0.0003  0.0000  0.0010  0.0000  0.0000  0.0000  0.0000
  11.  O  0.0003  0.0000  0.7363  0.0114  0.0018  0.0001  0.0003  0.0003
  12.  H  0.0000  0.7363  0.0000  0.0168  0.0004  0.0001  0.0002  0.0002
  13.  O  0.0010  0.0114  0.0168  0.0000  0.8920  0.0067  0.0227  0.0227
  14.  C  0.0000  0.0018  0.0004  0.8920  0.0000  0.9385  0.9367  0.9367
  15.  H  0.0000  0.0001  0.0001  0.0067  0.9385  0.0000  0.0009  0.0009
  16.  H  0.0000  0.0003  0.0002  0.0227  0.9367  0.0009  0.0000  0.0009
  17.  H  0.0000  0.0003  0.0002  0.0227  0.9367  0.0009  0.0009  0.0000


 Wiberg bond index, Totals by atom:                                            

     Atom    1
     ---- ------
   1.  C  3.9550
   2.  C  3.9526
   3.  C  3.9116
   4.  C  3.8947
   5.  C  3.9479
   6.  C  3.9549
   7.  H  0.9513
   8.  H  0.9479
   9.  H  0.9501
  10.  H  0.9519
  11.  O  1.9409
  12.  H  0.7738
  13.  O  2.0756
  14.  C  3.7370
  15.  H  0.9569
  16.  H  0.9692
  17.  H  0.9692


 Atom-atom overlap-weighted NAO bond order:                                    

     Atom    1       2       3       4       5       6       7       8       9
     ---- ------  ------  ------  ------  ------  ------  ------  ------  ------
   1.  C  0.0000  1.1260  0.0245 -0.0369  0.0040  1.1515  0.7685  0.0077  0.0079
   2.  C  1.1260  0.0000  1.1409  0.0316 -0.0382  0.0042  0.0028  0.7648  0.0000
   3.  C  0.0245  1.1409  0.0000  1.0861  0.0323 -0.0389  0.0070  0.0077  0.0060
   4.  C -0.0369  0.0316  1.0861  0.0000  1.1612  0.0229  0.0002  0.0080  0.0118
   5.  C  0.0040 -0.0382  0.0323  1.1612  0.0000  1.1193  0.0076 -0.0002  0.7708
   6.  C  1.1515  0.0042 -0.0389  0.0229  1.1193  0.0000  0.0044  0.0073  0.0070
   7.  H  0.7685  0.0028  0.0070  0.0002  0.0076  0.0044  0.0000 -0.0094 -0.0002
   8.  H  0.0077  0.7648  0.0077  0.0080 -0.0002  0.0073 -0.0094  0.0000  0.0000
   9.  H  0.0079  0.0000  0.0060  0.0118  0.7708  0.0070 -0.0002  0.0000  0.0000
  10.  H  0.0046  0.0077  0.0002  0.0065  0.0029  0.7696 -0.0092 -0.0002 -0.0092
  11.  O  0.0028 -0.0172  0.8631 -0.0163  0.0027  0.0004 -0.0001 -0.0012 -0.0001
  12.  H -0.0004  0.0094 -0.0014 -0.0076  0.0019 -0.0001  0.0000 -0.0003 -0.0000
  13.  O  0.0003  0.0025 -0.0107  0.8133 -0.0181  0.0032  0.0000 -0.0001 -0.0053
  14.  C -0.0000 -0.0003  0.0127 -0.0176 -0.0094  0.0006 -0.0000  0.0000  0.0021
  15.  H  0.0000  0.0000 -0.0002  0.0069  0.0008  0.0000 -0.0000 -0.0000  0.0002
  16.  H -0.0000 -0.0000  0.0004 -0.0046  0.0008  0.0000  0.0000  0.0000 -0.0009
  17.  H -0.0000 -0.0000  0.0004 -0.0046  0.0008  0.0000  0.0000  0.0000 -0.0009

     Atom   10      11      12      13      14      15      16      17
     ---- ------  ------  ------  ------  ------  ------  ------  ------
   1.  C  0.0046  0.0028 -0.0004  0.0003 -0.0000  0.0000 -0.0000 -0.0000
   2.  C  0.0077 -0.0172  0.0094  0.0025 -0.0003  0.0000 -0.0000 -0.0000
   3.  C  0.0002  0.8631 -0.0014 -0.0107  0.0127 -0.0002  0.0004  0.0004
   4.  C  0.0065 -0.0163 -0.0076  0.8133 -0.0176  0.0069 -0.0046 -0.0046
   5.  C  0.0029  0.0027  0.0019 -0.0181 -0.0094  0.0008  0.0008  0.0008
   6.  C  0.7696  0.0004 -0.0001  0.0032  0.0006  0.0000  0.0000  0.0000
   7.  H -0.0092 -0.0001  0.0000  0.0000 -0.0000 -0.0000  0.0000  0.0000
   8.  H -0.0002 -0.0012 -0.0003 -0.0001  0.0000 -0.0000  0.0000  0.0000
   9.  H -0.0092 -0.0001 -0.0000 -0.0053  0.0021  0.0002 -0.0009 -0.0009
  10.  H  0.0000  0.0000  0.0000 -0.0001 -0.0000 -0.0000  0.0000  0.0000
  11.  O  0.0000  0.0000  0.6262 -0.0022  0.0002  0.0000 -0.0000 -0.0000
  12.  H  0.0000  0.6262  0.0000  0.0306 -0.0009 -0.0004  0.0002  0.0002
  13.  O -0.0001 -0.0022  0.0306  0.0000  0.7165 -0.0110 -0.0191 -0.0191
  14.  C -0.0000  0.0002 -0.0009  0.7165  0.0000  0.7567  0.7558  0.7558
  15.  H -0.0000  0.0000 -0.0004 -0.0110  0.7567  0.0000 -0.0085 -0.0085
  16.  H  0.0000 -0.0000  0.0002 -0.0191  0.7558 -0.0085  0.0000 -0.0110
  17.  H  0.0000 -0.0000  0.0002 -0.0191  0.7558 -0.0085 -0.0110  0.0000


 Atom-atom overlap-weighted NAO bond order, Totals by atom:                    

     Atom    1
     ---- ------
   1.  C  3.0603
   2.  C  3.0343
   3.  C  3.1299
   4.  C  3.0609
   5.  C  3.0391
   6.  C  3.0512
   7.  H  0.7717
   8.  H  0.7841
   9.  H  0.7891
  10.  H  0.7727
  11.  O  1.4583
  12.  H  0.6574
  13.  O  1.4807
  14.  C  2.9721
  15.  H  0.7362
  16.  H  0.7132
  17.  H  0.7132


 MO bond order:                                                                

     Atom    1       2       3       4       5       6       7       8       9
     ---- ------  ------  ------  ------  ------  ------  ------  ------  ------
   1.  C  0.0000  1.1289  0.0292 -0.2286 -0.1237 -0.2571  1.1323  0.0075 -0.0805
   2.  C  1.1289  0.0000  0.9195  0.0319 -0.2471 -0.0422 -0.0088  1.5547 -0.0151
   3.  C  0.0292  0.9195  0.0000 -0.2535 -0.0764 -0.2441  0.1409  0.0552 -0.0565
   4.  C -0.2286  0.0319 -0.2535  0.0000  1.0342 -0.0538  0.0056  0.1643  0.0172
   5.  C -0.1237 -0.2471 -0.0764  1.0342  0.0000  0.7657  0.1063  0.0133 -0.6271
   6.  C -0.2571 -0.0422 -0.2441 -0.0538  0.7657  0.0000  0.0343  0.1733  0.0599
   7.  H  1.1323 -0.0088  0.1409  0.0056  0.1063  0.0343  0.0000 -0.0751 -0.0326
   8.  H  0.0075  1.5547  0.0552  0.1643  0.0133  0.1733 -0.0751  0.0000  0.0290
   9.  H -0.0805 -0.0151 -0.0565  0.0172 -0.6271  0.0599 -0.0326  0.0290  0.0000
  10.  H -0.0175 -0.0025 -0.0167 -0.0328  0.0396  0.0030 -0.0772 -0.0303 -0.0799
  11.  O  0.0091 -0.2094  0.5284  0.0848 -0.0385  0.1180 -0.0001  0.0779  0.0606
  12.  H -0.0360 -0.0277  0.0460 -0.1158  0.0427  0.0049  0.0275 -0.0025 -0.0097
  13.  O  0.1238 -0.0291 -0.1316  0.3697 -0.0123 -0.0061  0.0242 -0.0268  0.0231
  14.  C -0.0042  0.0251 -0.0951  0.0230 -0.0296  0.0092 -0.0049  0.0405  0.0332
  15.  H -0.0074 -0.0043  0.0186 -0.0193 -0.0108  0.0035 -0.0026 -0.0085  0.0103
  16.  H  0.0436 -0.0035 -0.0373 -0.0150 -0.0650  0.0174  0.0025  0.0022 -0.0050
  17.  H -0.0423  0.0047  0.0189  0.0077  0.0672 -0.0053  0.0003  0.0022  0.0005

     Atom   10      11      12      13      14      15      16      17
     ---- ------  ------  ------  ------  ------  ------  ------  ------
   1.  C -0.0175  0.0091 -0.0360  0.1238 -0.0042 -0.0074  0.0436 -0.0423
   2.  C -0.0025 -0.2094 -0.0277 -0.0291  0.0251 -0.0043 -0.0035  0.0047
   3.  C -0.0167  0.5284  0.0460 -0.1316 -0.0951  0.0186 -0.0373  0.0189
   4.  C -0.0328  0.0848 -0.1158  0.3697  0.0230 -0.0193 -0.0150  0.0077
   5.  C  0.0396 -0.0385  0.0427 -0.0123 -0.0296 -0.0108 -0.0650  0.0672
   6.  C  0.0030  0.1180  0.0049 -0.0061  0.0092  0.0035  0.0174 -0.0053
   7.  H -0.0772 -0.0001  0.0275  0.0242 -0.0049 -0.0026  0.0025  0.0003
   8.  H -0.0303  0.0779 -0.0025 -0.0268  0.0405 -0.0085  0.0022  0.0022
   9.  H -0.0799  0.0606 -0.0097  0.0231  0.0332  0.0103 -0.0050  0.0005
  10.  H  0.0000  0.0177  0.0049  0.0096 -0.0050 -0.0070  0.0056  0.0050
  11.  O  0.0177  0.0000 -0.1735  0.1343 -0.0990 -0.0074  0.0313  0.0128
  12.  H  0.0049 -0.1735  0.0000  0.1733 -0.0135 -0.0142  0.0201  0.0153
  13.  O  0.0096  0.1343  0.1733  0.0000 -0.9861 -0.0442  0.2369 -0.0450
  14.  C -0.0050 -0.0990 -0.0135 -0.9861  0.0000  0.2194 -0.5924  0.7684
  15.  H -0.0070 -0.0074 -0.0142 -0.0442  0.2194  0.0000 -0.0489 -0.0266
  16.  H  0.0056  0.0313  0.0201  0.2369 -0.5924 -0.0489  0.0000 -0.0518
  17.  H  0.0050  0.0128  0.0153 -0.0450  0.7684 -0.0266 -0.0518  0.0000


 MO atomic valencies:                                                          

     Atom    1
     ---- ------
   1.  C  1.6773
   2.  C  3.0752
   3.  C  0.8455
   4.  C  1.0197
   5.  C  0.8385
   6.  C  0.5807
   7.  H  1.2728
   8.  H  1.9769
   9.  H -0.6726
  10.  H -0.1833
  11.  O  0.5471
  12.  H -0.0583
  13.  O -0.1863
  14.  C -0.7111
  15.  H  0.0506
  16.  H -0.4590
  17.  H  0.7320


 NATURAL BOND ORBITAL ANALYSIS:

                       Occupancies       Lewis Structure    Low   High
           Occ.    -------------------  -----------------   occ   occ
  Cycle   Thresh.   Lewis   Non-Lewis     CR  BD  3C  LP    (L)   (NL)   Dev
 =============================================================================
   1(1)    1.90    62.73670   3.26330      9  19   0   5     3      3    0.45
   2(2)    1.90    62.73670   3.26330      9  19   0   5     3      3    0.45
   3(1)    1.80    62.51067   3.48933      9  17   0   7     3      3    0.45
   4(2)    1.80    62.51067   3.48933      9  17   0   7     3      3    0.45
   5(1)    1.70    63.81752   2.18248      9  19   0   5     1      3    0.41
   6(2)    1.70    63.81752   2.18248      9  19   0   5     1      3    0.41
   7(1)    1.60    64.44341   1.55659      9  20   0   4     0      3    0.41
   8(2)    1.60    63.78182   2.21818      9  19   0   5     1      3    0.45
   9(3)    1.60    64.44341   1.55659      9  20   0   4     0      3    0.41
  10(1)    1.50    64.44341   1.55659      9  20   0   4     0      3    0.41
  11(2)    1.50    63.78182   2.21818      9  19   0   5     1      3    0.45
  12(3)    1.50    64.44341   1.55659      9  20   0   4     0      3    0.41
  13(1)    1.60    64.44341   1.55659      9  20   0   4     0      3    0.41
 -----------------------------------------------------------------------------

 Structure accepted: RESONANCE keyword permits strongly delocalized structure

 WARNING:  1 low occupancy (<1.9990e) core orbital  found on  C    1
           1 low occupancy (<1.9990e) core orbital  found on  C    2
           1 low occupancy (<1.9990e) core orbital  found on  C    3
           1 low occupancy (<1.9990e) core orbital  found on  C    4
           1 low occupancy (<1.9990e) core orbital  found on  C    5
           1 low occupancy (<1.9990e) core orbital  found on  C    6

 --------------------------------------------------------
   Core                     17.99191 ( 99.955% of  18)
   Valence Lewis            46.45150 ( 96.774% of  48)
  ==================       ============================
   Total Lewis              64.44341 ( 97.642% of  66)
  -----------------------------------------------------
   Valence non-Lewis         1.43792 (  2.179% of  66)
   Rydberg non-Lewis         0.11867 (  0.180% of  66)
  ==================       ============================
   Total non-Lewis           1.55659 (  2.358% of  66)
 --------------------------------------------------------


       (Occupancy)   Bond orbital/ Coefficients/ Hybrids
 ---------------------------------------------------------------------------------
     1. (1.97499) BD ( 1) C   1 - C   2  
                ( 49.61%)   0.7043* C   1 s( 35.30%)p 1.83( 64.67%)d 0.00(  0.04%)
                                            0.0001  0.5940  0.0092 -0.2431  0.0337
                                            0.7655  0.0215  0.0000 -0.0000 -0.0114
                                           -0.0000  0.0000 -0.0103 -0.0108
                ( 50.39%)   0.7099* C   2 s( 36.43%)p 1.74( 63.54%)d 0.00(  0.03%)
                                           -0.0000  0.6035  0.0109  0.2889  0.0405
                                           -0.7418  0.0050 -0.0001 -0.0000 -0.0056
                                           -0.0000  0.0000 -0.0124 -0.0103
     2. (1.97837) BD ( 1) C   1 - C   6  
                ( 49.96%)   0.7068* C   1 s( 36.04%)p 1.77( 63.93%)d 0.00(  0.03%)
[...]
   zy         0.693264D+01      0.102731D+01      0.114304D+01
   zz         0.103149D+03      0.152851D+02      0.170070D+02

 ----------------------------------------------------------------------

 Test job not archived.
 1\1\GINC-LISZT\Freq\RB3LYP\CC-pVDZ\C7H8O2\JSTEFFEN\03-Sep-2021\0\\#p f
 req b3lyp/cc-pvdz geom=connectivity empiricaldispersion=gd3 pop=(hirsh
 feld, nboread) density=current iop(7/33=1,6/80=1)\\Title Card Required
 \\0,1\C,2.30531921,-0.58894921,-0.00004072\C,1.8416231,0.7332026,0.000
 03711\C,0.47336685,0.99331141,0.00009809\C,-0.44236708,-0.08324741,-0.
 00007815\C,0.01950889,-1.39900893,-0.00003358\C,1.40075108,-1.64981169
 ,0.00003826\H,3.37989366,-0.78249156,-0.00006263\H,2.52799724,1.581799
 27,0.00007308\H,-0.68283223,-2.23261858,0.00002021\H,1.75774218,-2.681
 41517,0.00001916\O,0.02043463,2.27811126,0.00003726\H,-0.95034542,2.22
 947392,0.00027573\O,-1.7593834,0.31713861,-0.00035215\C,-2.76436055,-0
 .68477575,0.00020241\H,-3.72615221,-0.15504276,0.00038618\H,-2.6992768
 2,-1.32313006,-0.8994886\H,-2.69848523,-1.32290011,0.89995551\\Version
 =ES64L-G16RevA.03\State=1-A\HF=-422.0301026\RMSD=4.139e-09\RMSF=4.116e
 -05\ZeroPoint=0.1370982\Thermal=0.1450529\Dipole=-0.8795155,-0.5598697
 ,0.0003959\DipoleDeriv=0.0483194,-0.0873583,-0.0000243,0.1333799,0.027
 0819,-0.0000008,0.0000243,-0.0000016,-0.1266054,0.0221955,0.2294324,0.
 000002,-0.0346408,-0.0430054,0.0000125,0.0000089,-0.000016,-0.1483673,
 -0.0074867,-0.3765321,-0.0000004,-0.5819681,1.2009141,0.0000395,0.0000
 709,-0.0000771,0.0770353,1.3687537,-0.211157,0.0001903,-0.1415332,-0.1
 366828,-0.000005,0.0004183,-0.0000097,0.0592969,-0.0357223,-0.0488082,
 -0.0000185,0.0750034,0.0000485,0.0000203,-0.0001364,-0.0000523,-0.1566
 331,-0.1064071,0.0486951,0.0000124,-0.0937551,0.0149146,-0.0000137,-0.
 0000134,0.0000584,-0.1390634,-0.1077411,0.0320955,0.0000104,0.0307108,
 0.0597678,-0.0000014,-0.0000241,0.000005,0.1121519,0.0260185,-0.063479
 9,0.0000016,-0.0737823,-0.0271904,-0.0000073,-0.0000004,-0.0000177,0.1
 243504,-0.0017481,-0.0846735,-0.0000022,-0.09434,0.0071765,-0.0000004,
 0.0000029,0.000023,0.1252797,0.032644,0.0450491,0.0000001,0.0600554,-0
 .0920743,0.0000053,0.0000341,-0.0000194,0.1135921,-0.4071292,0.4258484
 ,-0.0000148,0.4567947,-1.3068286,-0.0000749,-0.0001004,0.0001004,-0.32
 7127,0.2864192,-0.0557557,0.0000123,-0.0437042,0.3859427,0.0000381,0.0
 000544,-0.0000061,0.2984334,-1.824991,-0.1330242,-0.00006,-0.074082,-0
 .4988116,0.0000584,-0.0001921,0.0001875,-0.2591896,0.8418149,0.2101698
 ,-0.0000333,0.5646466,0.4591182,0.0000114,-0.0001637,-0.000076,0.35282
 9,-0.1240191,0.0307116,0.0000514,0.0799578,0.0179435,-0.0000314,0.0000
 288,-0.0000146,0.0792362,-0.0054821,0.0193522,0.047049,-0.1314123,-0.0
 342082,-0.0755761,-0.0208974,-0.0830003,-0.0926328,-0.0054387,0.019434
 6,-0.047176,-0.1313307,-0.0341066,0.0755256,0.0208853,0.0829163,-0.092
 5862\Polar=109.1996258,-1.271071,92.2103775,-0.0002687,0.0015115,38.09
 52786\Quadrupole=5.0331639,-1.1466123,-3.8865516,0.2001338,-0.0014037,
 0.0007175\PG=C01 [X(C7H8O2)]\NImag=0\\0.73969524,-0.00557211,0.6688623
 9,-0.00002334,0.00000586,0.12905605,-0.14612574,0.03764952,0.00000539,
 0.70289038,0.09847525,-0.31726378,-0.00001473,0.02351064,0.73054910,0.
 00000632,-0.00001524,-0.05587457,-0.00001054,0.00002988,0.12344243,-0.
 00535799,0.08583412,0.00000226,-0.34414206,-0.01084521,0.00001213,0.75
 962237,0.03997076,0.01681308,-0.00000192,0.05916764,-0.13169460,-0.000
 00417,-0.03072256,0.68569418,0.00000010,-0.00000341,0.00040047,0.00000
 612,0.00000059,-0.06205995,0.00001576,0.00002447,0.14867616,-0.0013403
 7,-0.01859457,-0.00000073,-0.04260649,-0.00702940,-0.00000459,-0.17672
 301,-0.13161373,-0.00001346,0.65419984,-0.01869050,-0.06140908,0.00000
 097,-0.04939324,0.05113035,0.00000068,-0.05033651,-0.21205483,-0.00002
 303,-0.01342409,0.73637142,0.00000112,-0.00000749,-0.00185299,-0.00000
 452,0.00000194,0.00264532,-0.00001513,-0.00002348,-0.06931147,0.000058
 99,-0.00001554,0.13862489,-0.04685226,-0.05928917,-0.00000169,-0.03544
 755,0.03227880,0.00000243,0.06201617,0.00698077,0.00000158,-0.14883910
 ,0.01907032,-0.00001654,0.69880362,-0.01180894,0.04212566,-0.00000237,
 0.02239883,-0.02472290,-0.00000102,-0.03774424,-0.05000512,0.00000095,
 0.08694413,-0.32419923,0.00001304,0.03379356,0.70963482,0.00000187,0.0
 0000030,0.00704988,-0.00000013,0.00000046,-0.00212092,-0.00000182,-0.0
 0000256,0.00219199,-0.00000606,0.00000992,-0.05647754,0.00002060,-0.00
 002766,0.12074940,-0.21793597,-0.08260530,0.00001070,0.05350739,-0.042
 15059,-0.00000196,-0.05969769,-0.02686636,0.00000161,0.00082914,0.0856
 1137,0.00000638,-0.32534784,0.00723923,-0.00001663,0.66587793,-0.14390
 969,-0.25320711,0.00001328,0.00412630,-0.05568759,-0.00000027,-0.02643
 531,-0.00546302,-0.00000056,0.04009137,0.00929105,0.00000713,0.0687290
 8,-0.12448659,0.00000189,-0.01411085,0.73619575,0.00001168,0.00001467,
 -0.06048142,0.00000023,-0.00000292,0.00697186,-0.00000148,-0.00000254,
 -0.00128487,0.00000101,0.00000453,0.00145796,-0.00001011,-0.00000041,-
 0.05659881,-0.00000307,-0.00001237,0.12501891,-0.32924245,0.04903241,0
 .00000796,-0.00662174,-0.00146341,-0.00000021,0.00204949,0.00131944,0.
 00000012,0.00076252,-0.00029534,-0.00000006,-0.00037887,-0.00400929,0.
 00000080,-0.01517382,0.00744366,-0.00000046,0.34868998,0.04895167,-0.0
 6624333,-0.00000082,0.02964188,-0.00095282,-0.00000075,0.00034675,-0.0
 0484592,-0.00000015,-0.00031049,-0.00139867,-0.00000012,-0.00298540,-0
 .00311846,0.00000053,-0.02381060,0.00850755,0.00000016,-0.05265708,0.0
 6629861,0.00000475,-0.00000031,-0.03417121,0.00000235,-0.00000140,0.00
 216235,-0.00000119,-0.00000134,0.00678997,0.00000013,0.00000040,-0.000
 75059,-0.00000041,0.00000130,0.00684039,0.00000254,-0.00000031,0.00235
 603,-0.00000785,0.00000138,0.02486647,0.01056831,0.00933167,-0.0000001
 4,-0.17181378,-0.13750318,-0.00000274,-0.01429920,-0.02771714,-0.00000
 248,-0.00377920,0.00313287,0.00000076,-0.00069571,0.00098687,-0.000000
 13,0.00048931,0.00274070,0.00000042,0.00074061,-0.00043945,-0.00000013
 ,0.17751746,-0.02053665,-0.01521740,-0.00000002,-0.13980517,-0.2253103
 2,-0.00000896,0.00531313,0.00586059,-0.00000029,0.00155121,0.00014825,
 -0.00000014,0.00076095,0.00020644,0.,0.00359427,-0.00379276,-0.0000007
 9,0.00022174,0.00093415,0.00000031,0.15026247,0.23666339,-0.00000157,0
 .00000022,0.00198457,-0.00000415,-0.00001045,-0.03434767,-0.00000048,0
 .00000211,0.00521486,0.00000048,0.00000014,0.00655646,0.00000096,-0.00
 000031,-0.00101184,-0.00000022,-0.00000069,0.00626748,-0.00000008,0.00
 000010,-0.00391124,0.00000460,0.00000935,0.02416041,-0.00504034,0.0026
 3115,-0.00000050,-0.00021574,0.00104861,0.00000009,-0.00039116,0.00253
 851,-0.00000042,0.00966568,0.00775286,0.00000081,-0.17159314,-0.139911
 50,0.00000532,-0.01358316,-0.02555772,0.00000103,-0.00086029,-0.001176
 84,0.00000025,0.00001588,-0.00010709,0.,0.18562921,0.00173087,0.001444
 14,0.00000042,0.00098186,-0.00031732,-0.00000021,0.00399377,-0.0030324
 3,0.00000205,-0.02220975,-0.01611652,-0.00000094,-0.13888880,-0.225473
 56,0.00001050,0.00497728,0.00742860,0.00000018,0.00030805,0.00022146,0
 .,-0.00006410,-0.00002735,-0.00000003,0.15058289,0.23440615,-0.0000012
 1,-0.00000106,0.00600236,-0.00000126,0.00000126,-0.00094438,0.00000153
 ,0.00000119,0.00616128,0.00000119,-0.00000437,0.00341670,0.00000592,0.
 00001689,-0.03140627,0.00000048,-0.00000231,0.00203185,-0.00000008,-0.
 00000016,0.00053154,-0.00000004,0.00000003,-0.00050460,-0.00000787,-0.
 00001029,0.02280510,0.01042427,-0.01989310,-0.00000026,-0.00211588,-0.
 00308953,0.00000045,-0.00124691,-0.00049380,-0.00000010,-0.00502217,-0
 .00095307,-0.00000053,-0.00613660,0.02952571,0.00000055,-0.08690751,0.
 08685171,0.00000224,0.00080399,0.00035617,-0.00000020,0.00037347,-0.00
 096409,-0.00000011,0.00088499,-0.00016318,0.00000014,0.08919811,0.0114
 7124,-0.01718860,-0.00000092,-0.00441470,-0.00146422,0.00000029,-0.000
 70363,0.00048340,0.00000012,0.00039625,0.00210489,-0.00000004,-0.00148
 906,-0.00209267,-0.00000050,0.08710537,-0.30838177,-0.00000194,-0.0002
 9550,0.00079553,0.00000006,0.00055379,-0.00091706,-0.00000008,0.000284
 00,0.00081116,0.00000012,-0.09319260,0.32611659,-0.00000108,0.00000104
 ,0.00194221,0.00000033,0.00000064,0.00678614,0.00000139,0.00000065,-0.
 00106472,-0.00000075,-0.00000095,0.00604709,-0.00000263,0.00000245,0.0
 0155490,0.00000524,-0.00000584,-0.03188995,-0.00000019,-0.00000006,-0.
 00419887,-0.00000010,0.00000013,0.00051636,-0.00000010,-0.00000029,-0.
 00381925,-0.00000182,0.00000295,0.02402483,-0.00478212,-0.00810265,-0.
 00000058,-0.01917939,0.05598796,-0.00000152,-0.12685587,0.08912840,0.0
 0000106,0.00297318,-0.01324538,0.00000014,-0.00619452,-0.00152499,-0.0
 0000009,0.00228985,0.00473127,-0.00000027,-0.00075887,0.00178793,0.000
 00049,0.00244402,-0.00074062,0.00000033,0.00041170,-0.00083765,-0.0000
 0009,0.00033541,0.00014793,0.00000003,0.62248262,-0.00446376,0.0000593
 2,-0.00000011,0.01847760,-0.01068489,0.00000138,0.03521063,-0.29874481
 ,0.00000881,0.01858187,-0.06033894,0.00000455,-0.00809378,0.00497953,-
 0.00000123,0.00559828,-0.00442422,0.00000128,0.00024719,-0.00003783,-0
 .00000021,-0.00010001,0.00096711,-0.00000028,0.00049604,-0.00169808,-0
 .00000040,0.00009640,-0.00000844,-0.00000027,-0.05660788,0.41108488,0.
 00000245,0.00000060,0.00510043,0.00000126,-0.00000341,0.00710825,0.000
 00832,0.00000611,-0.04282060,-0.00000385,-0.00000221,0.00910559,-0.000
 00192,-0.00000203,0.00608959,-0.00000167,0.00000154,-0.00111811,0.0000
 0014,-0.00000032,0.00029407,-0.00000005,0.00000040,-0.00408502,0.00000
 024,-0.00000067,-0.00034704,0.00000001,-0.00000008,-0.00045754,-0.0001
 2106,-0.00001665,0.03015206,-0.00115195,0.00021402,-0.00000010,0.00312
 139,0.00119543,0.00000116,-0.02437109,0.00762177,0.00000469,0.00586973
 ,-0.00572521,-0.00000150,-0.00213860,0.00072766,-0.00000040,0.00061429
 ,-0.00081217,0.00000026,0.00007980,0.00010874,-0.00000016,0.00018840,-
 0.00001405,0.00000011,0.00010687,-0.00046307,-0.00000007,-0.00006126,0
 .00000549,-0.00000008,-0.47885932,-0.00650589,0.00011232,0.49984157,0.
 00130943,0.00152089,0.00000051,0.00119768,-0.00814001,0.00000040,0.049
 02625,-0.00303938,-0.00001039,0.00701952,-0.00395764,-0.00000065,0.000
 15986,0.00032888,-0.00000016,-0.00040258,-0.00043768,0.,0.00010583,-0.
 00044858,-0.00000013,-0.00000425,-0.00002825,-0.00000025,-0.00000405,0
 .00011621,-0.00000004,-0.00016301,0.00004027,0.00000001,-0.05888502,-0
 .04876527,0.00001937,0.00267151,0.05947875,-0.00000078,0.00000084,0.00
 186826,0.00000086,0.00000037,0.00091364,-0.00000587,0.00000390,-0.0013
 1536,0.00000251,-0.00000040,0.00146851,0.00000038,0.00000068,-0.000747
 01,0.00000011,-0.00000081,-0.00014582,-0.00000005,0.00000013,-0.000035
 61,0.00000006,-0.00000008,-0.00054785,-0.00000004,0.00000020,0.0001419
 9,-0.00000005,0.00000005,-0.00008268,0.00012017,0.00000351,-0.00691044
 ,-0.00011633,-0.00000908,0.00778648,-0.00435767,0.00920810,0.00000092,
 0.00967058,-0.00803433,0.00000090,-0.06750875,0.00680892,-0.00001823,-
 0.25766944,0.07126009,-0.00005252,-0.02087376,0.01119201,-0.00000540,-
 0.00376975,-0.00232135,-0.00000118,-0.00012862,0.00023218,-0.00000065,
 -0.00145875,0.00020913,0.00000024,-0.00011393,-0.00025864,0.00000028,-
 0.00100232,0.00034789,-0.00000004,0.00442857,-0.00502965,0.00000308,-0
 .00192809,0.00050154,0.00000018,0.53572251,0.00212459,-0.00004154,0.00
 000004,-0.00321065,-0.00565318,-0.00000248,-0.02728495,0.00388571,-0.0
 0000169,0.03448194,-0.12700814,0.00002666,0.04220896,-0.00461169,0.000
 00967,-0.00406736,-0.00553228,0.00000062,-0.00000028,0.00032087,0.0000
 0005,-0.00147124,0.00041818,0.00000042,-0.00173476,0.00229485,-0.00000
 018,0.00185244,-0.00016260,-0.00000044,-0.00952299,0.00604753,-0.00000
 173,0.00054881,0.00186911,-0.00000097,0.05997033,0.33397027,-0.0000001
 9,0.00000684,-0.00118515,0.00000750,-0.00000259,0.00440376,-0.00001533
 ,-0.00000309,0.00641902,-0.00002941,0.00003862,-0.03796902,0.00000490,
 -0.00000125,0.00451202,-0.00000629,-0.00000214,0.00687894,0.00000004,0
 .00000008,-0.00063204,0.00000048,-0.00000009,0.00007043,0.00000079,-0.
 00000104,-0.00313614,-0.00000012,-0.00000015,0.00069815,0.00000543,-0.
 00000026,-0.00237557,-0.00000215,-0.00000275,-0.00125491,-0.00000291,-
 0.00011467,0.06535545,0.00117260,-0.00176466,0.00000005,-0.00236123,-0
 .00070143,-0.00000157,0.00069998,0.00477353,0.00000317,-0.05108901,-0.
 02643894,0.00001313,0.00300351,0.00090367,0.00000139,0.00072594,-0.001
 44689,0.00000012,0.00004673,-0.00011050,0.00000005,-0.00014229,0.00023
 819,0.,-0.00225657,-0.00069509,0.00000053,0.00055221,-0.00023939,-0.00
 000024,0.00181080,0.00189155,0.00000077,-0.00168724,-0.00399612,-0.000
 00159,-0.14459576,-0.05058791,0.00002127,0.54427162,0.00138098,-0.0012
 1400,-0.00000030,-0.00119881,0.00096603,0.00000041,0.00764208,-0.00424
 307,0.00000401,-0.00345671,0.01207290,-0.00000779,0.00732227,0.0024264
 2,-0.00000023,0.00048924,-0.00059225,-0.00000012,0.00004196,-0.0001238
 0,0.00000026,0.00049583,0.00010239,-0.00000034,0.00166559,-0.00123835,
 -0.00000019,0.00043827,-0.00023318,-0.00000002,-0.00210890,0.00201968,
 -0.00000103,-0.00013393,-0.00006350,0.00000109,-0.08508795,-0.16946253
 ,0.00005303,-0.08098919,0.52676270,-0.00000012,-0.00000188,0.00035266,
 -0.00000252,-0.00000037,0.00093057,-0.00000268,0.00000037,0.00233094,0
 .00000045,-0.00001192,-0.00500486,-0.00000292,0.00000027,-0.00080639,0
 .00000190,0.00000153,0.00042523,-0.00000005,0.00000005,-0.00016718,-0.
 00000058,0.00000016,-0.00034917,0.00000013,0.00000116,-0.00013389,-0.0
 0000021,0.00000012,-0.00007376,-0.00000418,0.00000007,0.00022978,0.000
 00251,0.00000374,-0.00116619,0.00004961,0.00006083,-0.05752511,0.00007
 774,-0.00003667,0.55988389,-0.00004865,0.00017308,0.00000011,0.0000776
 1,-0.00054526,-0.00000044,-0.00147942,0.00129771,0.00000027,0.00126902
 ,-0.00425928,0.00000602,0.00027780,-0.00054326,-0.00000021,-0.00010694
 ,0.00009349,0.00000006,-0.00001732,0.00001779,-0.00000005,-0.00013655,
 0.00001538,0.00000001,0.00020819,0.00007586,-0.00000025,-0.00005848,0.
 00002969,-0.00000002,0.00032723,-0.00049474,0.00000010,-0.00019980,0.0
 0020795,0.00000006,-0.03114021,0.00471471,0.00000308,-0.24581837,0.117
 66739,0.00003966,0.27656476,0.00012501,0.00015745,0.00000006,0.0000949
 8,-0.00048532,-0.00000027,-0.00142765,0.00079188,-0.00000035,-0.002652
 19,-0.00351284,0.00000381,0.00006290,-0.00124411,-0.00000016,-0.000192
 82,0.00052239,-0.00000038,0.00003191,0.00004663,0.00000002,-0.00011452
 ,0.00002780,0.00000004,0.00047790,0.00075926,0.00000014,-0.00005022,-0
 .00000299,-0.00000003,0.00025754,0.00003106,0.00000017,-0.00013909,-0.
 00011936,-0.00000006,-0.03349076,0.01025909,0.00000706,0.13204440,-0.1
 2112893,-0.00002179,-0.12195171,0.12742580,-0.00000020,-0.00000032,-0.
 00002870,-0.00000028,0.00000048,-0.00002320,0.00000095,0.,0.00030930,-
 0.00000164,0.00000173,0.00062215,-0.00000070,0.00000025,0.00036407,0.0
 0000042,-0.00000019,0.00016281,0.,-0.00000002,-0.00002699,0.00000005,-
 0.00000001,-0.00004059,-0.00000039,-0.00000027,-0.00046108,0.00000002,
 0.,0.00002010,-0.00000001,-0.00000016,-0.00008773,-0.00000002,-0.00000
 005,0.00012265,0.00001583,-0.00000314,0.00008161,0.00003705,-0.0000177
 1,-0.04827718,-0.00005127,0.00002633,0.04433433,0.00018741,0.00087331,
 0.00007061,0.00068065,-0.00056709,0.00015131,-0.00115760,-0.00109633,0
 .00046530,0.00574833,-0.00203385,-0.00170239,0.00019960,0.00091488,-0.
 00021623,-0.00090489,-0.00010656,0.00055401,0.00000442,0.00002363,-0.0
 0009451,-0.00000607,0.00000063,-0.00006876,-0.00143411,0.00046498,-0.0
 0132476,-0.00001071,-0.00000335,-0.00003741,-0.00043703,0.00034793,0.0
 0004521,0.00028796,0.00062823,-0.00024437,-0.00764543,-0.02401447,-0.0
 2161542,-0.05214946,0.01786752,0.02454425,0.00014564,0.01346923,0.0220
 9381,0.05511348,-0.00027910,0.00040090,-0.00003576,0.00038769,-0.00013
 433,0.00005153,-0.00093357,-0.00020286,0.00021268,0.00511217,-0.000562
 87,0.00016705,-0.00031131,0.00012615,0.00054430,-0.00020431,0.00003003
 ,-0.00019655,-0.00001564,0.00002233,0.00003560,-0.00004520,-0.00001757
 ,-0.00004392,0.00050692,0.00021098,0.00028506,-0.00007907,0.00004985,0
 .00001670,-0.00023294,-0.00024329,0.00012527,0.00035034,0.00082329,-0.
 00034651,-0.01276370,-0.02329934,-0.01818502,0.01351473,-0.12303934,-0
 .11321334,0.00174940,-0.00676786,-0.01268417,-0.00641596,0.14148742,-0
 .00005173,0.00017321,-0.00008145,0.00023583,-0.00002507,0.00000324,-0.
 00054999,0.00011632,-0.00031896,0.00161895,-0.00054205,0.00071095,-0.0
 0022295,-0.00122616,-0.00009182,-0.00000396,0.00040380,-0.00002620,0.0
 0003773,0.00004777,0.00002648,-0.00001950,0.00000319,0.00001375,-0.000
 07591,0.00078112,-0.00016886,-0.00004643,0.00000242,-0.00000150,0.0000
 8378,0.00007342,0.00006116,0.00007817,0.00014430,-0.00004771,-0.005584
 21,-0.00090271,0.00784476,0.01978586,-0.11583227,-0.22529318,-0.000013
 79,0.00186727,0.00145499,-0.01893834,0.12909504,0.23535942,0.00018768,
 0.00087419,-0.00007066,0.00068159,-0.00056726,-0.00015122,-0.00115726,
 -0.00109756,-0.00046508,0.00575134,-0.00203210,0.00170583,0.00019727,0
 .00091566,0.00021658,-0.00090628,-0.00010703,-0.00055449,0.00000444,0.
 00002362,0.00009458,-0.00000589,0.00000058,0.00006861,-0.00143409,0.00
 046472,0.00132554,-0.00001061,-0.00000341,0.00003746,-0.00043628,0.000
 34822,-0.00004535,0.00028736,0.00062725,0.00024477,-0.00762916,-0.0240
 0719,0.02162832,-0.05218347,0.01796438,-0.02470298,0.00013549,0.013455
 08,-0.02209359,0.00137781,-0.00034047,0.00366648,0.05514006,-0.0002790
 4,0.00040099,0.00003581,0.00038793,-0.00013423,-0.00005120,-0.00093312
 ,-0.00020281,-0.00021382,0.00511246,-0.00056009,-0.00016800,-0.0003099
 4,0.00012641,-0.00054506,-0.00020428,0.00002990,0.00019658,-0.00001564
 ,0.00002229,-0.00003568,-0.00004511,-0.00001761,0.00004396,0.00050751,
 0.00021081,-0.00028568,-0.00007904,0.00004983,-0.00001665,-0.00023201,
 -0.00024333,-0.00012534,0.00034964,0.00082226,0.00034715,-0.01274380,-
 0.02329431,0.01820741,0.01360406,-0.12301117,0.11321768,0.00175181,-0.
 00675997,0.01267725,-0.00035274,0.01111652,-0.01417959,-0.00651867,0.1
 4144451,0.00005193,-0.00017390,-0.00008137,-0.00023647,0.00002534,0.00
 000312,0.00055163,-0.00011602,-0.00031805,-0.00162324,0.00054346,0.000
 71084,0.00022311,0.00122541,-0.00009164,0.00000441,-0.00040367,-0.0000
 2588,-0.00003776,-0.00004780,0.00002643,0.00001954,-0.00000319,0.00001
 367,0.00007656,-0.00078189,-0.00016930,0.00004642,-0.00000242,-0.00000
 149,-0.00008365,-0.00007343,0.00006113,-0.00007840,-0.00014483,-0.0000
 4794,0.00559410,0.00092972,0.00781381,-0.01993773,0.11583788,-0.225356
 17,0.00001667,-0.00188187,0.00147346,-0.00368230,0.01417204,-0.0194450
 6,0.01909520,-0.12910482,0.23543443\\0.00003050,0.00009093,-0.00001163
 ,0.00003909,-0.00004452,-0.00000495,-0.00004525,-0.00005545,0.00002537
 ,-0.00007217,0.00013502,0.00000036,0.00011346,-0.00007438,-0.00000879,
 -0.00011556,-0.00002211,0.00001161,-0.00000350,-0.00001582,0.00000076,
 -0.00000401,0.00001180,0.00000110,-0.00001024,0.00000685,0.00000631,0.
 00002126,0.00000013,-0.00000238,0.00000899,0.00001026,-0.00001021,0.00
 001142,-0.00000736,0.00000395,0.00005059,-0.00001527,-0.00001170,-0.00
 005151,-0.00004456,0.00003142,0.00002214,-0.00000385,-0.00001242,-0.00
 000634,0.00001298,0.00000367,0.00001112,0.00001535,-0.00002246\\\@


 PENOTUS DIED A HUNDRED YEARS OLD WANTING BUT TWO...
 AND HE USED TO SAY BEFORE HE DIED, HAVING SPENT HIS
 WHOLE LIFE IN VAINLY SEARCHING AFTER THE PHILOSOPHER'S
 STONE, THAT IF HE HAD A MORTAL ENEMY HE DID NOT DARE
 TO ENCOUNTER OPENLY, HE WOULD ADVISE HIM ABOVE ALL
 THINGS TO GIVE HIMSELF UP TO THE STUDY AND PRACTICE
 OF ALCHEMY.  --  NICOLAS LEMERY, M.D.
 "A COURSE OF CHYMISTRY", WALTER KETTILBY, LONDON, 1686
 Job cpu time:       0 days  0 hours 13 minutes 36.0 seconds.
 Elapsed time:       0 days  0 hours 13 minutes 37.8 seconds.
 File lengths (MBytes):  RWF=     58 Int=      0 D2E=      0 Chk=      3 Scr=      1
 Normal termination of Gaussian 16 at Fri Sep  3 14:56:18 2021.
