Title Card Required                                                     
Freq      RB3LYP                                                      CC-pVDZ             
Number of atoms                            I               17
Info1-9                                    I   N=           9
          44          44           0           0           0         101
           6          18        -502
Full Title                                 C   N=           2
Title Card Required     
Route                                      C   N=          11
#p freq b3lyp/cc-pvdz geom=connectivity empiricaldispersion=
gd3 pop=(hirshfeld, nboread) density=current iop(7/33=1,6/80
=1)         
Charge                                     I                0
Multiplicity                               I                1
Number of electrons                        I               66
Number of alpha electrons                  I               33
Number of beta electrons                   I               33
Number of basis functions                  I              166
Number of independent functions            I              166
Number of point charges in /Mol/           I                0
Number of translation vectors              I                0
Atomic numbers                             I   N=          17
           6           6           6           6           6           6
           1           1           1           1           8           1
           8           6           1           1           1
Nuclear charges                            R   N=          17
  6.00000000E+00  6.00000000E+00  6.00000000E+00  6.00000000E+00  6.00000000E+00
  6.00000000E+00  1.00000000E+00  1.00000000E+00  1.00000000E+00  1.00000000E+00
  8.00000000E+00  1.00000000E+00  8.00000000E+00  6.00000000E+00  1.00000000E+00
  1.00000000E+00  1.00000000E+00
Current cartesian coordinates              R   N=          51
  4.35642194E+00 -1.11295271E+00 -7.69496478E-05  3.48016328E+00  1.38555211E+00
  7.01277365E-05  8.94533703E-01  1.87708652E+00  1.85363236E-04 -8.35952628E-01
 -1.57314805E-01 -1.47682097E-04  3.68664591E-02 -2.64374372E+00 -6.34570033E-05
  2.64703591E+00 -3.11769225E+00  7.23009215E-05  6.38707335E+00 -1.47869474E+00
 -1.18353547E-04  4.77722243E+00  2.98916740E+00  1.38101185E-04 -1.29036590E+00
 -4.21903766E+00  3.81913650E-05  3.32165132E+00 -5.06714030E+00  3.62071525E-05
  3.86158542E-02  4.30500636E+00  7.04111954E-05 -1.79589257E+00  4.21309511E+00
  5.21054184E-04 -3.32475277E+00  5.99305116E-01 -6.65467055E-04 -5.22388435E+00
 -1.29403862E+00  3.82499465E-04 -7.04140718E+00 -2.92988354E-01  7.29774435E-04
 -5.10089392E+00 -2.50035344E+00 -1.69978711E+00 -5.09939804E+00 -2.49991890E+00
  1.70066944E+00
Number of symbols in /Mol/                 I                0
Force Field                                I                0
Atom Types                                 C   N=          17
                                                            
                                                            
                                                            
                        
Int Atom Types                             I   N=          17
           0           0           0           0           0           0
           0           0           0           0           0           0
           0           0           0           0           0
MM charges                                 R   N=          17
  0.00000000E+00  0.00000000E+00  0.00000000E+00  0.00000000E+00  0.00000000E+00
  0.00000000E+00  0.00000000E+00  0.00000000E+00  0.00000000E+00  0.00000000E+00
  0.00000000E+00  0.00000000E+00  0.00000000E+00  0.00000000E+00  0.00000000E+00
  0.00000000E+00  0.00000000E+00
Integer atomic weights                     I   N=          17
          12          12          12          12          12          12
           1           1           1           1          16           1
          16          12           1           1           1
Real atomic weights                        R   N=          17
  1.20000000E+01  1.20000000E+01  1.20000000E+01  1.20000000E+01  1.20000000E+01
  1.20000000E+01  1.00782504E+00  1.00782504E+00  1.00782504E+00  1.00782504E+00
  1.59949146E+01  1.00782504E+00  1.59949146E+01  1.20000000E+01  1.00782504E+00
  1.00782504E+00  1.00782504E+00
Atom fragment info                         I   N=          17
           0           0           0           0           0           0
           0           0           0           0           0           0
           0           0           0           0           0
Atom residue num                           I   N=          17
           0           0           0           0           0           0
           0           0           0           0           0           0
           0           0           0           0           0
Nuclear spins                              I   N=          17
           0           0           0           0           0           0
           1           1           1           1           0           1
           0           0           1           1           1
Nuclear ZEff                               R   N=          17
 -3.60000000E+00 -3.60000000E+00 -3.60000000E+00 -3.60000000E+00 -3.60000000E+00
 -3.60000000E+00 -1.00000000E+00 -1.00000000E+00 -1.00000000E+00 -1.00000000E+00
 -5.60000000E+00 -1.00000000E+00 -5.60000000E+00 -3.60000000E+00 -1.00000000E+00
 -1.00000000E+00 -1.00000000E+00
Nuclear ZNuc                               R   N=          17
  6.00000000E+00  6.00000000E+00  6.00000000E+00  6.00000000E+00  6.00000000E+00
  6.00000000E+00  1.00000000E+00  1.00000000E+00  1.00000000E+00  1.00000000E+00
  8.00000000E+00  1.00000000E+00  8.00000000E+00  6.00000000E+00  1.00000000E+00
  1.00000000E+00  1.00000000E+00
Nuclear QMom                               R   N=          17
  0.00000000E+00  0.00000000E+00  0.00000000E+00  0.00000000E+00  0.00000000E+00
  0.00000000E+00  0.00000000E+00  0.00000000E+00  0.00000000E+00  0.00000000E+00
  0.00000000E+00  0.00000000E+00  0.00000000E+00  0.00000000E+00  0.00000000E+00
  0.00000000E+00  0.00000000E+00
Nuclear GFac                               R   N=          17
  0.00000000E+00  0.00000000E+00  0.00000000E+00  0.00000000E+00  0.00000000E+00
  0.00000000E+00  2.79284600E+00  2.79284600E+00  2.79284600E+00  2.79284600E+00
  0.00000000E+00  2.79284600E+00  0.00000000E+00  0.00000000E+00  2.79284600E+00
  2.79284600E+00  2.79284600E+00
MicOpt                                     I   N=          17
          -1          -1          -1          -1          -1          -1
          -1          -1          -1          -1          -1          -1
          -1          -1          -1          -1          -1
Number of residues                         I                0
Number of secondary structures             I                0
SymInf integers                            I   N=          26
           1           1           1           1           1           0
           0           0           0           0           0           0
           0           0           0           0           0           0
           0           0           0           0           0           0
           0           0
RotTr to input orientation                 R   N=          12
  1.00000000E+00  1.21900334E-09  0.00000000E+00 -1.21900334E-09  1.00000000E+00
  0.00000000E+00  0.00000000E+00  0.00000000E+00  1.00000000E+00  2.86322171E-10
  8.58966366E-10  1.14528856E-09
Number of contracted shells                I               78
Number of primitive shells                 I              220
Pure/Cartesian d shells                    I                0
Pure/Cartesian f shells                    I                0
Highest angular momentum                   I                2
Largest degree of contraction              I                7
Shell types                                I   N=          78
           0           0           0           1           1          -2
           0           0           0           1           1          -2
           0           0           0           1           1          -2
           0           0           0           1           1          -2
           0           0           0           1           1          -2
           0           0           0           1           1          -2
           0           0           1           0           0           1
           0           0           1           0           0           1
           0           0           0           1           1          -2
           0           0           1           0           0           0
           1           1          -2           0           0           0
           1           1          -2           0           0           1
           0           0           1           0           0           1
Number of primitives per shell             I   N=          78
           7           7           1           3           1           1
           7           7           1           3           1           1
           7           7           1           3           1           1
           7           7           1           3           1           1
           7           7           1           3           1           1
           7           7           1           3           1           1
           3           1           1           3           1           1
           3           1           1           3           1           1
           7           7           1           3           1           1
           3           1           1           7           7           1
           3           1           1           7           7           1
           3           1           1           3           1           1
           3           1           1           3           1           1
Shell to atom map                          I   N=          78
           1           1           1           1           1           1
           2           2           2           2           2           2
           3           3           3           3           3           3
           4           4           4           4           4           4
           5           5           5           5           5           5
           6           6           6           6           6           6
           7           7           7           8           8           8
           9           9           9          10          10          10
          11          11          11          11          11          11
          12          12          12          13          13          13
          13          13          13          14          14          14
          14          14          14          15          15          15
          16          16          16          17          17          17
Primitive exponents                        R   N=         220
  6.66500000E+03  1.00000000E+03  2.28000000E+02  6.47100000E+01  2.10600000E+01
  7.49500000E+00  2.79700000E+00  6.66500000E+03  2.28000000E+02  6.47100000E+01
  2.10600000E+01  7.49500000E+00  2.79700000E+00  5.21500000E-01  1.59600000E-01
  9.43900000E+00  2.00200000E+00  5.45600000E-01  1.51700000E-01  5.50000000E-01
  6.66500000E+03  1.00000000E+03  2.28000000E+02  6.47100000E+01  2.10600000E+01
  7.49500000E+00  2.79700000E+00  6.66500000E+03  2.28000000E+02  6.47100000E+01
  2.10600000E+01  7.49500000E+00  2.79700000E+00  5.21500000E-01  1.59600000E-01
  9.43900000E+00  2.00200000E+00  5.45600000E-01  1.51700000E-01  5.50000000E-01
  6.66500000E+03  1.00000000E+03  2.28000000E+02  6.47100000E+01  2.10600000E+01
  7.49500000E+00  2.79700000E+00  6.66500000E+03  2.28000000E+02  6.47100000E+01
  2.10600000E+01  7.49500000E+00  2.79700000E+00  5.21500000E-01  1.59600000E-01
  9.43900000E+00  2.00200000E+00  5.45600000E-01  1.51700000E-01  5.50000000E-01
  6.66500000E+03  1.00000000E+03  2.28000000E+02  6.47100000E+01  2.10600000E+01
  7.49500000E+00  2.79700000E+00  6.66500000E+03  2.28000000E+02  6.47100000E+01
  2.10600000E+01  7.49500000E+00  2.79700000E+00  5.21500000E-01  1.59600000E-01
  9.43900000E+00  2.00200000E+00  5.45600000E-01  1.51700000E-01  5.50000000E-01
  6.66500000E+03  1.00000000E+03  2.28000000E+02  6.47100000E+01  2.10600000E+01
  7.49500000E+00  2.79700000E+00  6.66500000E+03  2.28000000E+02  6.47100000E+01
  2.10600000E+01  7.49500000E+00  2.79700000E+00  5.21500000E-01  1.59600000E-01
  9.43900000E+00  2.00200000E+00  5.45600000E-01  1.51700000E-01  5.50000000E-01
  6.66500000E+03  1.00000000E+03  2.28000000E+02  6.47100000E+01  2.10600000E+01
  7.49500000E+00  2.79700000E+00  6.66500000E+03  2.28000000E+02  6.47100000E+01
  2.10600000E+01  7.49500000E+00  2.79700000E+00  5.21500000E-01  1.59600000E-01
  9.43900000E+00  2.00200000E+00  5.45600000E-01  1.51700000E-01  5.50000000E-01
  1.30100000E+01  1.96200000E+00  4.44600000E-01  1.22000000E-01  7.27000000E-01
  1.30100000E+01  1.96200000E+00  4.44600000E-01  1.22000000E-01  7.27000000E-01
  1.30100000E+01  1.96200000E+00  4.44600000E-01  1.22000000E-01  7.27000000E-01
  1.30100000E+01  1.96200000E+00  4.44600000E-01  1.22000000E-01  7.27000000E-01
  1.17200000E+04  1.75900000E+03  4.00800000E+02  1.13700000E+02  3.70300000E+01
  1.32700000E+01  5.02500000E+00  1.17200000E+04  4.00800000E+02  1.13700000E+02
  3.70300000E+01  1.32700000E+01  5.02500000E+00  1.01300000E+00  3.02300000E-01
  1.77000000E+01  3.85400000E+00  1.04600000E+00  2.75300000E-01  1.18500000E+00
  1.30100000E+01  1.96200000E+00  4.44600000E-01  1.22000000E-01  7.27000000E-01
  1.17200000E+04  1.75900000E+03  4.00800000E+02  1.13700000E+02  3.70300000E+01
  1.32700000E+01  5.02500000E+00  1.17200000E+04  4.00800000E+02  1.13700000E+02
  3.70300000E+01  1.32700000E+01  5.02500000E+00  1.01300000E+00  3.02300000E-01
  1.77000000E+01  3.85400000E+00  1.04600000E+00  2.75300000E-01  1.18500000E+00
  6.66500000E+03  1.00000000E+03  2.28000000E+02  6.47100000E+01  2.10600000E+01
  7.49500000E+00  2.79700000E+00  6.66500000E+03  2.28000000E+02  6.47100000E+01
  2.10600000E+01  7.49500000E+00  2.79700000E+00  5.21500000E-01  1.59600000E-01
  9.43900000E+00  2.00200000E+00  5.45600000E-01  1.51700000E-01  5.50000000E-01
  1.30100000E+01  1.96200000E+00  4.44600000E-01  1.22000000E-01  7.27000000E-01
  1.30100000E+01  1.96200000E+00  4.44600000E-01  1.22000000E-01  7.27000000E-01
  1.30100000E+01  1.96200000E+00  4.44600000E-01  1.22000000E-01  7.27000000E-01
Contraction coefficients                   R   N=         220
  6.93516317E-04  5.34150243E-03  2.71366714E-02  1.01992385E-01  2.75508636E-01
  4.51086433E-01  2.87565745E-01  7.73354740E-06  2.78072137E-04 -2.57875654E-03
 -8.95087684E-03 -1.06058855E-01 -1.31517686E-01  1.09948660E+00  1.00000000E+00
  5.69792516E-02  3.13207212E-01  7.60376742E-01  1.00000000E+00  1.00000000E+00
  6.93516317E-04  5.34150243E-03  2.71366714E-02  1.01992385E-01  2.75508636E-01
  4.51086433E-01  2.87565745E-01  7.73354740E-06  2.78072137E-04 -2.57875654E-03
 -8.95087684E-03 -1.06058855E-01 -1.31517686E-01  1.09948660E+00  1.00000000E+00
  5.69792516E-02  3.13207212E-01  7.60376742E-01  1.00000000E+00  1.00000000E+00
  6.93516317E-04  5.34150243E-03  2.71366714E-02  1.01992385E-01  2.75508636E-01
  4.51086433E-01  2.87565745E-01  7.73354740E-06  2.78072137E-04 -2.57875654E-03
 -8.95087684E-03 -1.06058855E-01 -1.31517686E-01  1.09948660E+00  1.00000000E+00
  5.69792516E-02  3.13207212E-01  7.60376742E-01  1.00000000E+00  1.00000000E+00
  6.93516317E-04  5.34150243E-03  2.71366714E-02  1.01992385E-01  2.75508636E-01
  4.51086433E-01  2.87565745E-01  7.73354740E-06  2.78072137E-04 -2.57875654E-03
 -8.95087684E-03 -1.06058855E-01 -1.31517686E-01  1.09948660E+00  1.00000000E+00
  5.69792516E-02  3.13207212E-01  7.60376742E-01  1.00000000E+00  1.00000000E+00
  6.93516317E-04  5.34150243E-03  2.71366714E-02  1.01992385E-01  2.75508636E-01
  4.51086433E-01  2.87565745E-01  7.73354740E-06  2.78072137E-04 -2.57875654E-03
 -8.95087684E-03 -1.06058855E-01 -1.31517686E-01  1.09948660E+00  1.00000000E+00
  5.69792516E-02  3.13207212E-01  7.60376742E-01  1.00000000E+00  1.00000000E+00
  6.93516317E-04  5.34150243E-03  2.71366714E-02  1.01992385E-01  2.75508636E-01
  4.51086433E-01  2.87565745E-01  7.73354740E-06  2.78072137E-04 -2.57875654E-03
 -8.95087684E-03 -1.06058855E-01 -1.31517686E-01  1.09948660E+00  1.00000000E+00
  5.69792516E-02  3.13207212E-01  7.60376742E-01  1.00000000E+00  1.00000000E+00
  3.34987264E-02  2.34800801E-01  8.13682958E-01  1.00000000E+00  1.00000000E+00
  3.34987264E-02  2.34800801E-01  8.13682958E-01  1.00000000E+00  1.00000000E+00
  3.34987264E-02  2.34800801E-01  8.13682958E-01  1.00000000E+00  1.00000000E+00
  3.34987264E-02  2.34800801E-01  8.13682958E-01  1.00000000E+00  1.00000000E+00
  7.11864434E-04  5.48520199E-03  2.79099296E-02  1.05133208E-01  2.84002490E-01
  4.51673946E-01  2.73208126E-01  7.69030046E-06  3.13484579E-04 -2.96614853E-03
 -1.08753543E-02 -1.20753817E-01 -1.06275264E-01  1.09597548E+00  1.00000000E+00
  6.26791663E-02  3.33536566E-01  7.41239642E-01  1.00000000E+00  1.00000000E+00
  3.34987264E-02  2.34800801E-01  8.13682958E-01  1.00000000E+00  1.00000000E+00
  7.11864434E-04  5.48520199E-03  2.79099296E-02  1.05133208E-01  2.84002490E-01
  4.51673946E-01  2.73208126E-01  7.69030046E-06  3.13484579E-04 -2.96614853E-03
 -1.08753543E-02 -1.20753817E-01 -1.06275264E-01  1.09597548E+00  1.00000000E+00
  6.26791663E-02  3.33536566E-01  7.41239642E-01  1.00000000E+00  1.00000000E+00
  6.93516317E-04  5.34150243E-03  2.71366714E-02  1.01992385E-01  2.75508636E-01
  4.51086433E-01  2.87565745E-01  7.73354740E-06  2.78072137E-04 -2.57875654E-03
 -8.95087684E-03 -1.06058855E-01 -1.31517686E-01  1.09948660E+00  1.00000000E+00
  5.69792516E-02  3.13207212E-01  7.60376742E-01  1.00000000E+00  1.00000000E+00
  3.34987264E-02  2.34800801E-01  8.13682958E-01  1.00000000E+00  1.00000000E+00
  3.34987264E-02  2.34800801E-01  8.13682958E-01  1.00000000E+00  1.00000000E+00
  3.34987264E-02  2.34800801E-01  8.13682958E-01  1.00000000E+00  1.00000000E+00
Coordinates of each shell                  R   N=         234
  4.35642193E+00 -1.11295271E+00 -7.69507931E-05  4.35642193E+00 -1.11295271E+00
 -7.69507931E-05  4.35642193E+00 -1.11295271E+00 -7.69507931E-05  4.35642193E+00
 -1.11295271E+00 -7.69507931E-05  4.35642193E+00 -1.11295271E+00 -7.69507931E-05
  4.35642193E+00 -1.11295271E+00 -7.69507931E-05  3.48016329E+00  1.38555210E+00
  7.01265912E-05  3.48016329E+00  1.38555210E+00  7.01265912E-05  3.48016329E+00
  1.38555210E+00  7.01265912E-05  3.48016329E+00  1.38555210E+00  7.01265912E-05
  3.48016329E+00  1.38555210E+00  7.01265912E-05  3.48016329E+00  1.38555210E+00
  7.01265912E-05  8.94533705E-01  1.87708652E+00  1.85362090E-04  8.94533705E-01
  1.87708652E+00  1.85362090E-04  8.94533705E-01  1.87708652E+00  1.85362090E-04
  8.94533705E-01  1.87708652E+00  1.85362090E-04  8.94533705E-01  1.87708652E+00
  1.85362090E-04  8.94533705E-01  1.87708652E+00  1.85362090E-04 -8.35952628E-01
 -1.57314805E-01 -1.47683242E-04 -8.35952628E-01 -1.57314805E-01 -1.47683242E-04
 -8.35952628E-01 -1.57314805E-01 -1.47683242E-04 -8.35952628E-01 -1.57314805E-01
 -1.47683242E-04 -8.35952628E-01 -1.57314805E-01 -1.47683242E-04 -8.35952628E-01
 -1.57314805E-01 -1.47683242E-04  3.68664556E-02 -2.64374372E+00 -6.34581486E-05
  3.68664556E-02 -2.64374372E+00 -6.34581486E-05  3.68664556E-02 -2.64374372E+00
 -6.34581486E-05  3.68664556E-02 -2.64374372E+00 -6.34581486E-05  3.68664556E-02
 -2.64374372E+00 -6.34581486E-05  3.68664556E-02 -2.64374372E+00 -6.34581486E-05
  2.64703591E+00 -3.11769226E+00  7.22997762E-05  2.64703591E+00 -3.11769226E+00
  7.22997762E-05  2.64703591E+00 -3.11769226E+00  7.22997762E-05  2.64703591E+00
 -3.11769226E+00  7.22997762E-05  2.64703591E+00 -3.11769226E+00  7.22997762E-05
  2.64703591E+00 -3.11769226E+00  7.22997762E-05  6.38707335E+00 -1.47869475E+00
 -1.18354692E-04  6.38707335E+00 -1.47869475E+00 -1.18354692E-04  6.38707335E+00
 -1.47869475E+00 -1.18354692E-04  4.77722243E+00  2.98916740E+00  1.38100040E-04
  4.77722243E+00  2.98916740E+00  1.38100040E-04  4.77722243E+00  2.98916740E+00
  1.38100040E-04 -1.29036591E+00 -4.21903766E+00  3.81902197E-05 -1.29036591E+00
 -4.21903766E+00  3.81902197E-05 -1.29036591E+00 -4.21903766E+00  3.81902197E-05
  3.32165131E+00 -5.06714030E+00  3.62060073E-05  3.32165131E+00 -5.06714030E+00
  3.62060073E-05  3.32165131E+00 -5.06714030E+00  3.62060073E-05  3.86158591E-02
  4.30500636E+00  7.04100501E-05  3.86158591E-02  4.30500636E+00  7.04100501E-05
  3.86158591E-02  4.30500636E+00  7.04100501E-05  3.86158591E-02  4.30500636E+00
  7.04100501E-05  3.86158591E-02  4.30500636E+00  7.04100501E-05  3.86158591E-02
  4.30500636E+00  7.04100501E-05 -1.79589256E+00  4.21309511E+00  5.21053039E-04
 -1.79589256E+00  4.21309511E+00  5.21053039E-04 -1.79589256E+00  4.21309511E+00
  5.21053039E-04 -3.32475277E+00  5.99305120E-01 -6.65468200E-04 -3.32475277E+00
  5.99305120E-01 -6.65468200E-04 -3.32475277E+00  5.99305120E-01 -6.65468200E-04
 -3.32475277E+00  5.99305120E-01 -6.65468200E-04 -3.32475277E+00  5.99305120E-01
 -6.65468200E-04 -3.32475277E+00  5.99305120E-01 -6.65468200E-04 -5.22388435E+00
 -1.29403862E+00  3.82498320E-04 -5.22388435E+00 -1.29403862E+00  3.82498320E-04
 -5.22388435E+00 -1.29403862E+00  3.82498320E-04 -5.22388435E+00 -1.29403862E+00
  3.82498320E-04 -5.22388435E+00 -1.29403862E+00  3.82498320E-04 -5.22388435E+00
 -1.29403862E+00  3.82498320E-04 -7.04140718E+00 -2.92988346E-01  7.29773289E-04
 -7.04140718E+00 -2.92988346E-01  7.29773289E-04 -7.04140718E+00 -2.92988346E-01
  7.29773289E-04 -5.10089393E+00 -2.50035344E+00 -1.69978711E+00 -5.10089393E+00
 -2.50035344E+00 -1.69978711E+00 -5.10089393E+00 -2.50035344E+00 -1.69978711E+00
 -5.09939804E+00 -2.49991889E+00  1.70066944E+00 -5.09939804E+00 -2.49991889E+00
  1.70066944E+00 -5.09939804E+00 -2.49991889E+00  1.70066944E+00
Num ILSW                                   I              100
ILSW                                       I   N=         100
           0           0           0           0           2           0
           0           0           0           0         402          -1
           5           0           0           0           2           0
           0           0           0           0           1           0
           1           0           0           0           0           0
           0           0      100000           0          -1           0
           0           0           0           0           0           0
           0           0           0           1           0           0
           0 -2000000000           1           0           0           0
           0           0         131          52           0           0
           0           0           5           0           0           0
           0           0           0          17           0           1
           0           0           0           0           0           0
           0           0           0           0           0           0
           0           0           0           0           0           0
           0           0           0           0           0           0
           0           0           0           0
Num RLSW                                   I               52
RLSW                                       R   N=          52
  8.00000000E-01  7.20000000E-01  1.00000000E+00  8.10000000E-01  2.00000000E-01
  0.00000000E+00  0.00000000E+00  1.00000000E+00  0.00000000E+00  0.00000000E+00
  0.00000000E+00  0.00000000E+00  1.00000000E+00  0.00000000E+00  0.00000000E+00
  0.00000000E+00  0.00000000E+00  1.00000000E+00  0.00000000E+00  0.00000000E+00
  0.00000000E+00  0.00000000E+00  1.00000000E+00  0.00000000E+00  0.00000000E+00
  0.00000000E+00  0.00000000E+00  1.00000000E+00  0.00000000E+00  0.00000000E+00
  0.00000000E+00  0.00000000E+00  1.00000000E+00  0.00000000E+00  0.00000000E+00
  0.00000000E+00  0.00000000E+00  0.00000000E+00  1.00000000E+00  1.00000000E+00
  0.00000000E+00  1.00000000E+00  0.00000000E+00  0.00000000E+00  0.00000000E+00
  0.00000000E+00  0.00000000E+00  0.00000000E+00  0.00000000E+00  0.00000000E+00
  0.00000000E+00  0.00000000E+00
MxBond                                     I                4
NBond                                      I   N=          17
           3           3           3           3           3           3
           1           1           1           1           2           1
           2           4           1           1           1
IBond                                      I   N=          68
           2           6           7           0           1           3
           8           0           2           4          11           0
           3           5          13           0           4           6
           9           0           1           5          10           0
           1           0           0           0           2           0
           0           0           5           0           0           0
           6           0           0           0           3          12
           0           0          11           0           0           0
           4          14           0           0          13          15
          16          17          14           0           0           0
          14           0           0           0          14           0
           0           0
RBond                                      R   N=          68
  1.50000000E+00  1.50000000E+00  1.00000000E+00  0.00000000E+00  1.50000000E+00
  1.50000000E+00  1.00000000E+00  0.00000000E+00  1.50000000E+00  1.50000000E+00
  1.00000000E+00  0.00000000E+00  1.50000000E+00  1.50000000E+00  1.00000000E+00
  0.00000000E+00  1.50000000E+00  1.50000000E+00  1.00000000E+00  0.00000000E+00
  1.50000000E+00  1.50000000E+00  1.00000000E+00  0.00000000E+00  1.00000000E+00
  0.00000000E+00  0.00000000E+00  0.00000000E+00  1.00000000E+00  0.00000000E+00
  0.00000000E+00  0.00000000E+00  1.00000000E+00  0.00000000E+00  0.00000000E+00
  0.00000000E+00  1.00000000E+00  0.00000000E+00  0.00000000E+00  0.00000000E+00
  1.00000000E+00  1.00000000E+00  0.00000000E+00  0.00000000E+00  1.00000000E+00
  0.00000000E+00  0.00000000E+00  0.00000000E+00  1.00000000E+00  1.00000000E+00
  0.00000000E+00  0.00000000E+00  1.00000000E+00  1.00000000E+00  1.00000000E+00
  1.00000000E+00  1.00000000E+00  0.00000000E+00  0.00000000E+00  0.00000000E+00
  1.00000000E+00  0.00000000E+00  0.00000000E+00  0.00000000E+00  1.00000000E+00
  0.00000000E+00  0.00000000E+00  0.00000000E+00
Virial Ratio                               R      2.006648511766292E+00
SCF Energy                                 R     -4.220301026079985E+02
Total Energy                               R     -4.220301026079985E+02
RMS Force                                  R      4.115772641408144E-05
RMS Density                                R      4.139468714773456E-09
NImag                                      I                0
Job Status                                 I                1
Nuclear derivative order                   I                2
External E-field                           R   N=          35
  0.00000000E+00  0.00000000E+00  0.00000000E+00  0.00000000E+00  0.00000000E+00
  0.00000000E+00  0.00000000E+00  0.00000000E+00  0.00000000E+00  0.00000000E+00
  0.00000000E+00  0.00000000E+00  0.00000000E+00  0.00000000E+00  0.00000000E+00
  0.00000000E+00  0.00000000E+00  0.00000000E+00  0.00000000E+00  0.00000000E+00
  0.00000000E+00  0.00000000E+00  0.00000000E+00  0.00000000E+00  0.00000000E+00
  0.00000000E+00  0.00000000E+00  0.00000000E+00  0.00000000E+00  0.00000000E+00
  0.00000000E+00  0.00000000E+00  0.00000000E+00  0.00000000E+00  0.00000000E+00
IOpCl                                      I                0
IROHF                                      I                0
Alpha Orbital Energies                     R   N=         166
 -1.91831934E+01 -1.91620816E+01 -1.02535000E+01 -1.02442655E+01 -1.02412853E+01
 -1.01901670E+01 -1.01834348E+01 -1.01828782E+01 -1.01816305E+01 -1.08173382E+00
 -1.04765581E+00 -8.45864999E-01 -7.56506398E-01 -7.41253103E-01 -6.99492876E-01
 -6.05534459E-01 -6.04124721E-01 -5.50581699E-01 -5.20295465E-01 -4.86049758E-01
 -4.76714018E-01 -4.54028875E-01 -4.44360029E-01 -4.23834089E-01 -4.07487788E-01
 -3.88369082E-01 -3.78464847E-01 -3.46413983E-01 -3.44017775E-01 -3.38614030E-01
 -3.21370472E-01 -2.39212764E-01 -2.07490311E-01  3.56749574E-03  1.34124900E-02
  5.57067689E-02  6.11662213E-02  8.43583822E-02  1.06903610E-01  1.18028276E-01
  1.25668561E-01  1.28985138E-01  1.47296933E-01  1.55578123E-01  1.69211273E-01
  2.13263934E-01  2.50434603E-01  2.87411455E-01  3.06740419E-01  3.19786602E-01
  3.53114776E-01  4.29707002E-01  4.34508257E-01  4.38866041E-01  4.49131817E-01
  4.70240010E-01  4.76599334E-01  4.97640415E-01  5.09286188E-01  5.22034911E-01
  5.27855548E-01  5.35578638E-01  5.37795265E-01  5.50984269E-01  5.57325136E-01
  5.80867124E-01  6.01977323E-01  6.11392951E-01  6.11844908E-01  6.26384009E-01
  6.37407932E-01  6.49669539E-01  6.63102492E-01  7.01803758E-01  7.04534672E-01
  7.35725082E-01  7.47038457E-01  7.69563685E-01  8.41785467E-01  8.64733146E-01
  8.83436817E-01  9.02176481E-01  9.14727859E-01  9.22878158E-01  9.32836171E-01
  9.46294587E-01  9.75430287E-01  9.98758057E-01  1.00745894E+00  1.01837218E+00
  1.04359655E+00  1.06860568E+00  1.08564320E+00  1.09706861E+00  1.11482742E+00
  1.11780114E+00  1.18437447E+00  1.21149413E+00  1.22957032E+00  1.27310254E+00
  1.31638873E+00  1.36141200E+00  1.37405807E+00  1.38222856E+00  1.38341858E+00
  1.47223049E+00  1.48946555E+00  1.49147833E+00  1.55034758E+00  1.57177374E+00
  1.57193659E+00  1.58038855E+00  1.58441068E+00  1.60193497E+00  1.62625685E+00