 Entering Gaussian System, Link 0=g16
 Input=guaicol_opt.gjf
 Output=guaicol_opt.log
 Initial command:
 /home/jsteffen/Software/g16/l1.exe "/home/jsteffen/Software/g16/Gau-17870.inp" -scrdir="/home/jsteffen/Software/g16/"
 Entering Link 1 = /home/jsteffen/Software/g16/l1.exe PID=     17871.
  
 Copyright (c) 1988,1990,1992,1993,1995,1998,2003,2009,2016,
            Gaussian, Inc.  All Rights Reserved.
  
 This is part of the Gaussian(R) 16 program.  It is based on
 the Gaussian(R) 09 system (copyright 2009, Gaussian, Inc.),
 the Gaussian(R) 03 system (copyright 2003, Gaussian, Inc.),
 the Gaussian(R) 98 system (copyright 1998, Gaussian, Inc.),
 the Gaussian(R) 94 system (copyright 1995, Gaussian, Inc.),
 the Gaussian 92(TM) system (copyright 1992, Gaussian, Inc.),
 the Gaussian 90(TM) system (copyright 1990, Gaussian, Inc.),
 the Gaussian 88(TM) system (copyright 1988, Gaussian, Inc.),
 the Gaussian 86(TM) system (copyright 1986, Carnegie Mellon
 University), and the Gaussian 82(TM) system (copyright 1983,
 Carnegie Mellon University). Gaussian is a federally registered
 trademark of Gaussian, Inc.
  
 This software contains proprietary and confidential information,
 including trade secrets, belonging to Gaussian, Inc.
  
 This software is provided under written license and may be
 used, copied, transmitted, or stored only in accord with that
 written license.
  
 The following legend is applicable only to US Government
 contracts under FAR:
  
                    RESTRICTED RIGHTS LEGEND
  
 Use, reproduction and disclosure by the US Government is
 subject to restrictions as set forth in subparagraphs (a)
 and (c) of the Commercial Computer Software - Restricted
 Rights clause in FAR 52.227-19.
  
 Gaussian, Inc.
 340 Quinnipiac St., Bldg. 40, Wallingford CT 06492
  
  
 ---------------------------------------------------------------
 Warning -- This program may not be used in any manner that
 competes with the business of Gaussian, Inc. or will provide
 assistance to any competitor of Gaussian, Inc.  The licensee
 of this program is prohibited from giving any competitor of
 Gaussian, Inc. access to this program.  By using this program,
 the user acknowledges that Gaussian, Inc. is engaged in the
 business of creating and licensing software in the field of
 computational chemistry and represents and warrants to the
 licensee that it is not a competitor of Gaussian, Inc. and that
 it will not use this program in any manner prohibited above.
 ---------------------------------------------------------------
  

 Cite this work as:
 Gaussian 16, Revision A.03,
 M. J. Frisch, G. W. Trucks, H. B. Schlegel, G. E. Scuseria, 
 M. A. Robb, J. R. Cheeseman, G. Scalmani, V. Barone, 
 G. A. Petersson, H. Nakatsuji, X. Li, M. Caricato, A. V. Marenich, 
 J. Bloino, B. G. Janesko, R. Gomperts, B. Mennucci, H. P. Hratchian, 
 J. V. Ortiz, A. F. Izmaylov, J. L. Sonnenberg, D. Williams-Young, 
 F. Ding, F. Lipparini, F. Egidi, J. Goings, B. Peng, A. Petrone, 
 T. Henderson, D. Ranasinghe, V. G. Zakrzewski, J. Gao, N. Rega, 
 G. Zheng, W. Liang, M. Hada, M. Ehara, K. Toyota, R. Fukuda, 
 J. Hasegawa, M. Ishida, T. Nakajima, Y. Honda, O. Kitao, H. Nakai, 
 T. Vreven, K. Throssell, J. A. Montgomery, Jr., J. E. Peralta, 
 F. Ogliaro, M. J. Bearpark, J. J. Heyd, E. N. Brothers, K. N. Kudin, 
 V. N. Staroverov, T. A. Keith, R. Kobayashi, J. Normand, 
 K. Raghavachari, A. P. Rendell, J. C. Burant, S. S. Iyengar, 
 J. Tomasi, M. Cossi, J. M. Millam, M. Klene, C. Adamo, R. Cammi, 
 J. W. Ochterski, R. L. Martin, K. Morokuma, O. Farkas, 
 J. B. Foresman, and D. J. Fox, Gaussian, Inc., Wallingford CT, 2016.
 
 ******************************************
 Gaussian 16:  ES64L-G16RevA.03 25-Dec-2016
                 3-Sep-2021 
 ******************************************
 %chk=guaicol_opt.chk
 -------------------------------------------------------------
 # B3LYP empiricaldispersion=gd3 cc-pVDZ geom=connectivity opt
 -------------------------------------------------------------
 1/18=20,19=15,26=3,38=1,57=2/1,3;
 2/9=110,12=2,17=6,18=5,40=1/2;
 3/5=16,11=2,25=1,30=1,71=1,74=-5,124=31/1,2,3;
 4//1;
 5/5=2,38=5/2;
 6/7=2,8=2,9=2,10=2,28=1/1;
 7//1,2,3,16;
 1/18=20,19=15,26=3/3(2);
 2/9=110/2;
 99//99;
 2/9=110/2;
 3/5=16,11=2,25=1,30=1,71=1,74=-5,124=31/1,2,3;
 4/5=5,16=3,69=1/1;
 5/5=2,38=5/2;
 7//1,2,3,16;
 1/18=20,19=15,26=3/3(-5);
 2/9=110/2;
 6/7=2,8=2,9=2,10=2,19=2,28=1/1;
 99/9=1/99;
 -------------------
 Title Card Required
 -------------------
 Symbolic Z-matrix:
 Charge =  0 Multiplicity = 1
 C                    -2.638     1.41849   0. 
 C                    -1.24284   1.41849   0. 
 C                    -0.5453    2.62624   0. 
 C                    -1.24295   3.83475  -0.0012 
 C                    -2.63778   3.83467  -0.00168 
 C                    -3.33538   2.62646  -0.00068 
 H                    -3.18776   0.46617   0.00045 
 H                    -0.69333   0.46597   0.00132 
 H                    -3.1879    4.78695  -0.00263 
 H                    -4.43498   2.62664  -0.00086 
 O                     0.8847    2.62634   0.00082 
 H                     1.20568   2.62523  -0.90393 
 O                    -0.52749   5.07289  -0.00128 
 C                    -1.27043   6.05356   0.72758 
 H                    -0.63882   6.88883   0.94732 
 H                    -2.10237   6.38048   0.13945 
 H                    -1.62601   5.62515   1.64132 
 

 GradGradGradGradGradGradGradGradGradGradGradGradGradGradGradGradGradGrad
 Berny optimization.
 Initialization pass.
                           ----------------------------
                           !    Initial Parameters    !
                           ! (Angstroms and Degrees)  !
 --------------------------                            --------------------------
 ! Name  Definition              Value          Derivative Info.                !
 --------------------------------------------------------------------------------
 ! R1    R(1,2)                  1.3952         estimate D2E/DX2                !
 ! R2    R(1,6)                  1.3948         estimate D2E/DX2                !
 ! R3    R(1,7)                  1.0996         estimate D2E/DX2                !
 ! R4    R(2,3)                  1.3947         estimate D2E/DX2                !
 ! R5    R(2,8)                  1.0997         estimate D2E/DX2                !
 ! R6    R(3,4)                  1.3954         estimate D2E/DX2                !
 ! R7    R(3,11)                 1.43           estimate D2E/DX2                !
 ! R8    R(4,5)                  1.3948         estimate D2E/DX2                !
 ! R9    R(4,13)                 1.43           estimate D2E/DX2                !
 ! R10   R(5,6)                  1.3951         estimate D2E/DX2                !
 ! R11   R(5,9)                  1.0998         estimate D2E/DX2                !
 ! R12   R(6,10)                 1.0996         estimate D2E/DX2                !
 ! R13   R(11,12)                0.96           estimate D2E/DX2                !
 ! R14   R(13,14)                1.43           estimate D2E/DX2                !
 ! R15   R(14,15)                1.07           estimate D2E/DX2                !
 ! R16   R(14,16)                1.07           estimate D2E/DX2                !
 ! R17   R(14,17)                1.07           estimate D2E/DX2                !
 ! A1    A(2,1,6)              119.9985         estimate D2E/DX2                !
 ! A2    A(2,1,7)              119.9972         estimate D2E/DX2                !
 ! A3    A(6,1,7)              120.0043         estimate D2E/DX2                !
 ! A4    A(1,2,3)              120.0086         estimate D2E/DX2                !
 ! A5    A(1,2,8)              119.9808         estimate D2E/DX2                !
 ! A6    A(3,2,8)              120.0106         estimate D2E/DX2                !
 ! A7    A(2,3,4)              119.9942         estimate D2E/DX2                !
 ! A8    A(2,3,11)             120.0128         estimate D2E/DX2                !
 ! A9    A(4,3,11)             119.993          estimate D2E/DX2                !
 ! A10   A(3,4,5)              119.994          estimate D2E/DX2                !
 ! A11   A(3,4,13)             119.9811         estimate D2E/DX2                !
 ! A12   A(5,4,13)             120.0249         estimate D2E/DX2                !
 ! A13   A(4,5,6)              120.0047         estimate D2E/DX2                !
 ! A14   A(4,5,9)              120.0113         estimate D2E/DX2                !
 ! A15   A(6,5,9)              119.984          estimate D2E/DX2                !
 ! A16   A(1,6,5)              120.0            estimate D2E/DX2                !
 ! A17   A(1,6,10)             120.008          estimate D2E/DX2                !
 ! A18   A(5,6,10)             119.992          estimate D2E/DX2                !
 ! A19   A(3,11,12)            109.5            estimate D2E/DX2                !
 ! A20   A(4,13,14)            109.5            estimate D2E/DX2                !
 ! A21   A(13,14,15)           109.4712         estimate D2E/DX2                !
 ! A22   A(13,14,16)           109.4712         estimate D2E/DX2                !
 ! A23   A(13,14,17)           109.4712         estimate D2E/DX2                !
 ! A24   A(15,14,16)           109.4713         estimate D2E/DX2                !
 ! A25   A(15,14,17)           109.4712         estimate D2E/DX2                !
 ! A26   A(16,14,17)           109.4712         estimate D2E/DX2                !
 ! D1    D(6,1,2,3)              0.0323         estimate D2E/DX2                !
 ! D2    D(6,1,2,8)            179.9532         estimate D2E/DX2                !
 ! D3    D(7,1,2,3)           -179.9729         estimate D2E/DX2                !
 ! D4    D(7,1,2,8)             -0.052          estimate D2E/DX2                !
 ! D5    D(2,1,6,5)              0.0149         estimate D2E/DX2                !
 ! D6    D(2,1,6,10)           179.9892         estimate D2E/DX2                !
 ! D7    D(7,1,6,5)           -179.9798         estimate D2E/DX2                !
 ! D8    D(7,1,6,10)            -0.0056         estimate D2E/DX2                !
 ! D9    D(1,2,3,4)             -0.0568         estimate D2E/DX2                !
 ! D10   D(1,2,3,11)           179.9619         estimate D2E/DX2                !
 ! D11   D(8,2,3,4)           -179.9777         estimate D2E/DX2                !
 ! D12   D(8,2,3,11)             0.041          estimate D2E/DX2                !
 ! D13   D(2,3,4,5)              0.0341         estimate D2E/DX2                !
 ! D14   D(2,3,4,13)          -179.9964         estimate D2E/DX2                !
 ! D15   D(11,3,4,5)          -179.9846         estimate D2E/DX2                !
 ! D16   D(11,3,4,13)           -0.0151         estimate D2E/DX2                !
 ! D17   D(2,3,11,12)           89.947          estimate D2E/DX2                !
 ! D18   D(4,3,11,12)          -90.0343         estimate D2E/DX2                !
 ! D19   D(3,4,5,6)              0.0131         estimate D2E/DX2                !
 ! D20   D(3,4,5,9)           -179.9995         estimate D2E/DX2                !
 ! D21   D(13,4,5,6)          -179.9563         estimate D2E/DX2                !
 ! D22   D(13,4,5,9)             0.0311         estimate D2E/DX2                !
 ! D23   D(3,4,13,14)         -147.2124         estimate D2E/DX2                !
 ! D24   D(5,4,13,14)           32.7571         estimate D2E/DX2                !
 ! D25   D(4,5,6,1)             -0.0376         estimate D2E/DX2                !
 ! D26   D(4,5,6,10)           179.9881         estimate D2E/DX2                !
 ! D27   D(9,5,6,1)            179.975          estimate D2E/DX2                !
 ! D28   D(9,5,6,10)             0.0007         estimate D2E/DX2                !
 ! D29   D(4,13,14,15)         165.3798         estimate D2E/DX2                !
 ! D30   D(4,13,14,16)         -74.6202         estimate D2E/DX2                !
 ! D31   D(4,13,14,17)          45.3798         estimate D2E/DX2                !
 --------------------------------------------------------------------------------
 Trust Radius=3.00D-01 FncErr=1.00D-07 GrdErr=1.00D-06 EigMax=2.50D+02 EigMin=1.00D-04
 Number of steps in this run=     84 maximum allowed number of steps=    102.
 GradGradGradGradGradGradGradGradGradGradGradGradGradGradGradGradGradGrad

                          Input orientation:                          
 ---------------------------------------------------------------------
 Center     Atomic      Atomic             Coordinates (Angstroms)
 Number     Number       Type             X           Y           Z
 ---------------------------------------------------------------------
      1          6           0       -2.637998    1.418485    0.000000
      2          6           0       -1.242838    1.418485    0.000000
      3          6           0       -0.545300    2.626236    0.000000
      4          6           0       -1.242954    3.834745   -0.001199
      5          6           0       -2.637779    3.834667   -0.001678
      6          6           0       -3.335380    2.626461   -0.000682
      7          1           0       -3.187756    0.466168    0.000450
      8          1           0       -0.693330    0.465972    0.001315
      9          1           0       -3.187901    4.786948   -0.002631
     10          1           0       -4.434984    2.626644   -0.000862
     11          8           0        0.884700    2.626340    0.000824
     12          1           0        1.205677    2.625225   -0.903926
     13          8           0       -0.527485    5.072891   -0.001276
     14          6           0       -1.270430    6.053559    0.727575
     15          1           0       -0.638817    6.888830    0.947322
     16          1           0       -2.102371    6.380484    0.139447
     17          1           0       -1.626010    5.625151    1.641319
 ---------------------------------------------------------------------
                    Distance matrix (angstroms):
                    1          2          3          4          5
     1  C    0.000000
     2  C    1.395160   0.000000
     3  C    2.416205   1.394712   0.000000
     4  C    2.790065   2.416260   1.395427   0.000000
     5  C    2.416183   2.789946   2.416356   1.394825   0.000000
     6  C    1.394829   2.416183   2.790080   2.416236   1.395138
     7  H    1.099610   2.165553   3.412986   3.889675   3.413102
     8  H    2.165414   1.099655   2.165330   3.413316   3.889601
     9  H    3.413055   3.889707   3.413506   2.165528   1.099761
    10  H    2.165365   3.413128   3.889684   3.412999   2.165471
    11  O    3.724019   2.446494   1.430000   2.446867   3.723965
    12  H    4.128817   2.875504   1.970533   2.876394   4.129037
    13  O    4.220065   3.723763   2.446720   1.430000   2.446740
    14  C    4.887077   4.691912   3.577950   2.335595   2.706462
    15  H    5.900747   5.584526   4.367593   3.254552   3.771519
    16  H    4.992772   5.037824   4.066730   2.690570   2.605333
    17  H    4.627536   4.531753   3.585437   2.459706   2.632289
                    6          7          8          9         10
     6  C    0.000000
     7  H    2.165331   0.000000
     8  H    3.412938   2.494427   0.000000
     9  H    2.165516   4.320781   4.989362   0.000000
    10  H    1.099604   2.494641   4.320704   2.494420   0.000000
    11  O    4.220080   4.609908   2.675326   4.610240   5.319684
    12  H    4.630015   4.978120   3.014641   4.978845   5.712493
    13  O    3.724149   5.319675   4.609904   2.675738   4.610061
    14  C    4.066863   5.951789   5.664065   2.411265   4.721098
    15  H    5.132051   6.974542   6.492380   3.437753   5.785859
    16  H    3.953812   6.014691   6.081606   1.933369   4.421774
    17  H    3.822336   5.634413   5.493326   2.417573   4.424718
                   11         12         13         14         15
    11  O    0.000000
    12  H    0.960000   0.000000
    13  O    2.824869   3.132044   0.000000
    14  C    4.113221   4.532811   1.430000   0.000000
    15  H    4.624476   5.000760   2.051796   1.070000   0.000000
    16  H    4.799521   5.112120   2.051796   1.070000   1.747303
    17  H    4.241198   4.847296   2.051796   1.070000   1.747303
                   16         17
    16  H    0.000000
    17  H    1.747303   0.000000
 Stoichiometry    C7H8O2
 Framework group  C1[X(C7H8O2)]
 Deg. of freedom    45
 Full point group                 C1      NOp   1
 Largest Abelian subgroup         C1      NOp   1
 Largest concise Abelian subgroup C1      NOp   1
                         Standard orientation:                         
 ---------------------------------------------------------------------
 Center     Atomic      Atomic             Coordinates (Angstroms)
 Number     Number       Type             X           Y           Z
 ---------------------------------------------------------------------
      1          6           0        2.204594   -0.770483    0.100004
      2          6           0        1.861546    0.581076    0.145588
      3          6           0        0.526745    0.966454    0.023066
      4          6           0       -0.465600    0.000133   -0.146321
      5          6           0       -0.122507   -1.351053   -0.192360
      6          6           0        1.212640   -1.736444   -0.068798
      7          1           0        3.256980   -1.074138    0.197067
      8          1           0        2.643734    1.342328    0.279449
      9          1           0       -0.904359   -2.112867   -0.325855
     10          1           0        1.482859   -2.801716   -0.104926
     11          8           0        0.174941    2.351688    0.070594
     12          1           0        0.195439    2.718140   -0.816476
     13          8           0       -1.834077    0.395578   -0.271990
     14          6           0       -2.675190   -0.604414    0.308909
     15          1           0       -3.658901   -0.206768    0.447082
     16          1           0       -2.721587   -1.453045   -0.341146
     17          1           0       -2.274447   -0.901675    1.255451
 ---------------------------------------------------------------------
 Rotational constants (GHZ):           2.4345397           1.5923910           0.9864768
 Standard basis: CC-pVDZ (5D, 7F)
 There are   175 symmetry adapted cartesian basis functions of A   symmetry.
 There are   166 symmetry adapted basis functions of A   symmetry.
   166 basis functions,   353 primitive gaussians,   175 cartesian basis functions
    33 alpha electrons       33 beta electrons
       nuclear repulsion energy       430.3929617499 Hartrees.
 NAtoms=   17 NActive=   17 NUniq=   17 SFac= 1.00D+00 NAtFMM=   60 NAOKFM=F Big=F
 Integral buffers will be    131072 words long.
 Raffenetti 2 integral format.
 Two-electron integral symmetry is turned on.
 Nuclear repulsion after empirical dispersion term =      430.3820408346 Hartrees.
 One-electron integrals computed using PRISM.
 NBasis=   166 RedAO= T EigKep=  3.58D-04  NBF=   166
 NBsUse=   166 1.00D-06 EigRej= -1.00D+00 NBFU=   166
 ExpMin= 1.22D-01 ExpMax= 1.17D+04 ExpMxC= 4.01D+02 IAcc=3 IRadAn=         5 AccDes= 0.00D+00
 Harris functional with IExCor=  402 and IRadAn=       5 diagonalized for initial guess.
 HarFok:  IExCor=  402 AccDes= 0.00D+00 IRadAn=         5 IDoV= 1 UseB2=F ITyADJ=14
 ICtDFT=  3500011 ScaDFX=  1.000000  1.000000  1.000000  1.000000
 FoFCou: FMM=F IPFlag=           0 FMFlag=      100000 FMFlg1=           0
         NFxFlg=           0 DoJE=T BraDBF=F KetDBF=T FulRan=T
         wScrn=  0.000000 ICntrl=       500 IOpCl=  0 I1Cent=   200000004 NGrid=           0
         NMat0=    1 NMatS0=      1 NMatT0=    0 NMatD0=    1 NMtDS0=    0 NMtDT0=    0
 Petite list used in FoFCou.
 Keep R1 ints in memory in canonical form, NReq=98797577.
 Requested convergence on RMS density matrix=1.00D-08 within 128 cycles.
 Requested convergence on MAX density matrix=1.00D-06.
 Requested convergence on             energy=1.00D-06.
 No special actions if energy rises.
 Integral accuracy reduced to 1.0D-05 until final iterations.
 Initial convergence to 1.0D-05 achieved.  Increase integral accuracy.
 SCF Done:  E(RB3LYP) =  -422.004845881     A.U. after   14 cycles
            NFock= 14  Conv=0.40D-08     -V/T= 2.0065

 **********************************************************************

            Population analysis using the SCF density.

 **********************************************************************

 Orbital symmetries:
       Occupied  (A) (A) (A) (A) (A) (A) (A) (A) (A) (A) (A) (A)
                 (A) (A) (A) (A) (A) (A) (A) (A) (A) (A) (A) (A)
                 (A) (A) (A) (A) (A) (A) (A) (A) (A)
       Virtual   (A) (A) (A) (A) (A) (A) (A) (A) (A) (A) (A) (A)
                 (A) (A) (A) (A) (A) (A) (A) (A) (A) (A) (A) (A)
                 (A) (A) (A) (A) (A) (A) (A) (A) (A) (A) (A) (A)
                 (A) (A) (A) (A) (A) (A) (A) (A) (A) (A) (A) (A)
                 (A) (A) (A) (A) (A) (A) (A) (A) (A) (A) (A) (A)
                 (A) (A) (A) (A) (A) (A) (A) (A) (A) (A) (A) (A)
                 (A) (A) (A) (A) (A) (A) (A) (A) (A) (A) (A) (A)
                 (A) (A) (A) (A) (A) (A) (A) (A) (A) (A) (A) (A)
                 (A) (A) (A) (A) (A) (A) (A) (A) (A) (A) (A) (A)
                 (A) (A) (A) (A) (A) (A) (A) (A) (A) (A) (A) (A)
                 (A) (A) (A) (A) (A) (A) (A) (A) (A) (A) (A) (A)
                 (A)
 The electronic state is 1-A.
 Alpha  occ. eigenvalues --  -19.16162 -19.14692 -10.24455 -10.24264 -10.22783
 Alpha  occ. eigenvalues --  -10.19416 -10.19344 -10.19318 -10.19094  -1.04592
 Alpha  occ. eigenvalues --   -1.02010  -0.85373  -0.74970  -0.74608  -0.69504
 Alpha  occ. eigenvalues --   -0.61264  -0.59709  -0.54067  -0.50285  -0.48349
 Alpha  occ. eigenvalues --   -0.46959  -0.45828  -0.44364  -0.42391  -0.40621
 Alpha  occ. eigenvalues --   -0.37926  -0.36774  -0.35721  -0.33668  -0.30169
 Alpha  occ. eigenvalues --   -0.28978  -0.25178  -0.22904
 Alpha virt. eigenvalues --   -0.00884   0.00143   0.04836   0.06630   0.07902
 Alpha virt. eigenvalues --    0.10520   0.11049   0.12770   0.13430   0.14366
 Alpha virt. eigenvalues --    0.15820   0.18120   0.20134   0.23777   0.29475
 Alpha virt. eigenvalues --    0.30507   0.31982   0.34466   0.43498   0.43679
 Alpha virt. eigenvalues --    0.44984   0.45631   0.46515   0.47752   0.50246
 Alpha virt. eigenvalues --    0.50641   0.51785   0.52196   0.53159   0.54102
 Alpha virt. eigenvalues --    0.54808   0.56919   0.58663   0.59245   0.60265
 Alpha virt. eigenvalues --    0.63036   0.63977   0.64883   0.66991   0.67833
 Alpha virt. eigenvalues --    0.70281   0.71680   0.74540   0.76324   0.79422
 Alpha virt. eigenvalues --    0.82500   0.85892   0.86690   0.87587   0.90711
 Alpha virt. eigenvalues --    0.93244   0.94329   0.95676   0.97834   0.99143
 Alpha virt. eigenvalues --    1.00218   1.02783   1.03679   1.05883   1.07236
 Alpha virt. eigenvalues --    1.10258   1.12233   1.16484   1.18443   1.25741
 Alpha virt. eigenvalues --    1.26948   1.28718   1.31479   1.35209   1.36188
 Alpha virt. eigenvalues --    1.39971   1.41904   1.47509   1.47923   1.49704
 Alpha virt. eigenvalues --    1.52362   1.54991   1.57633   1.58956   1.59920
 Alpha virt. eigenvalues --    1.61230   1.62090   1.63883   1.64745   1.65632
 Alpha virt. eigenvalues --    1.67401   1.69982   1.70802   1.73262   1.75704
 Alpha virt. eigenvalues --    1.77116   1.77769   1.80395   1.83479   1.84708
 Alpha virt. eigenvalues --    1.86188   1.89580   1.91035   1.93552   1.95877
 Alpha virt. eigenvalues --    1.98217   2.00246   2.05093   2.08966   2.12290
 Alpha virt. eigenvalues --    2.13832   2.16933   2.17481   2.18034   2.22088
 Alpha virt. eigenvalues --    2.28945   2.30535   2.36435   2.42077   2.46258
 Alpha virt. eigenvalues --    2.50323   2.51320   2.54117   2.60316   2.70494
 Alpha virt. eigenvalues --    2.72198   2.78152   2.91619   2.93241   2.98750
 Alpha virt. eigenvalues --    3.00461   3.05313   3.14436   3.20678   3.28183
 Alpha virt. eigenvalues --    3.33095   3.63986   3.69057
          Condensed to atoms (all electrons):
               1          2          3          4          5          6
     1  C    4.770515   0.449494   0.021794  -0.075100   0.006043   0.492964
     2  C    0.449494   4.846376   0.444612  -0.014343  -0.064526   0.006633
     3  C    0.021794   0.444612   5.064938   0.240957  -0.002571  -0.075819
     4  C   -0.075100  -0.014343   0.240957   5.153797   0.312133   0.032838
     5  C    0.006043  -0.064526  -0.002571   0.312133   4.986840   0.448528
     6  C    0.492964   0.006633  -0.075819   0.032838   0.448528   4.756120
     7  H    0.385362  -0.045616   0.011423  -0.001508   0.012138  -0.053839
     8  H   -0.050143   0.367283  -0.039000   0.016070  -0.001511   0.010892
     9  H    0.009668  -0.000264   0.009221  -0.047875   0.382653  -0.045503
    10  H   -0.052777   0.010751  -0.000914   0.010858  -0.044031   0.384869
    11  O    0.004507  -0.053167   0.396397  -0.061952   0.004915   0.000005
    12  H    0.000600  -0.005254  -0.057962  -0.004336   0.000854  -0.000195
    13  O    0.000029   0.002715  -0.053690   0.407824  -0.064605   0.004370
    14  C   -0.000086   0.000263   0.000798  -0.082692  -0.000034   0.001801
    15  H    0.000003   0.000010  -0.000038   0.006632  -0.000312  -0.000093
    16  H   -0.000079   0.000125  -0.002212  -0.017037   0.006958   0.000804
    17  H    0.000052  -0.000590   0.004036  -0.009750   0.013151  -0.000584
               7          8          9         10         11         12
     1  C    0.385362  -0.050143   0.009668  -0.052777   0.004507   0.000600
     2  C   -0.045616   0.367283  -0.000264   0.010751  -0.053167  -0.005254
     3  C    0.011423  -0.039000   0.009221  -0.000914   0.396397  -0.057962
     4  C   -0.001508   0.016070  -0.047875   0.010858  -0.061952  -0.004336
     5  C    0.012138  -0.001511   0.382653  -0.044031   0.004915   0.000854
     6  C   -0.053839   0.010892  -0.045503   0.384869   0.000005  -0.000195
     7  H    0.753030  -0.016755  -0.000289  -0.015542  -0.000093   0.000023
     8  H   -0.016755   0.734365   0.000041  -0.000251   0.002560  -0.001170
     9  H   -0.000289   0.000041   0.736655  -0.015764  -0.000052   0.000035
    10  H   -0.015542  -0.000251  -0.015764   0.751528   0.000004  -0.000004
    11  O   -0.000093   0.002560  -0.000052   0.000004   7.605530   0.362728
    12  H    0.000023  -0.001170   0.000035  -0.000004   0.362728   0.554204
    13  O    0.000003  -0.000063  -0.008800  -0.000081  -0.000219   0.001024
    14  C   -0.000001   0.000014   0.002840   0.000017  -0.000016  -0.000213
    15  H   -0.000000  -0.000000  -0.000267  -0.000001   0.000012  -0.000001
    16  H    0.000000   0.000001  -0.004051   0.000120  -0.000025  -0.000013
    17  H    0.000002   0.000002   0.004080  -0.000023   0.000019   0.000058
              13         14         15         16         17
     1  C    0.000029  -0.000086   0.000003  -0.000079   0.000052
     2  C    0.002715   0.000263   0.000010   0.000125  -0.000590
     3  C   -0.053690   0.000798  -0.000038  -0.002212   0.004036
     4  C    0.407824  -0.082692   0.006632  -0.017037  -0.009750
     5  C   -0.064605  -0.000034  -0.000312   0.006958   0.013151
     6  C    0.004370   0.001801  -0.000093   0.000804  -0.000584
     7  H    0.000003  -0.000001  -0.000000   0.000000   0.000002
     8  H   -0.000063   0.000014  -0.000000   0.000001   0.000002
     9  H   -0.008800   0.002840  -0.000267  -0.004051   0.004080
    10  H   -0.000081   0.000017  -0.000001   0.000120  -0.000023
    11  O   -0.000219  -0.000016   0.000012  -0.000025   0.000019
    12  H    0.001024  -0.000213  -0.000001  -0.000013   0.000058
    13  O    7.755893   0.348049  -0.017411  -0.030973  -0.033333
    14  C    0.348049   4.387322   0.391402   0.399485   0.389984
    15  H   -0.017411   0.391402   0.658791  -0.032517  -0.026149
    16  H   -0.030973   0.399485  -0.032517   0.710765  -0.052023
    17  H   -0.033333   0.389984  -0.026149  -0.052023   0.692482
 Mulliken charges:
               1
     1  C    0.037156
     2  C    0.055499
     3  C    0.038031
     4  C    0.133486
     5  C    0.003379
     6  C    0.036210
     7  H   -0.028337
     8  H   -0.022335
     9  H   -0.022327
    10  H   -0.028761
    11  O   -0.261154
    12  H    0.149621
    13  O   -0.310732
    14  C    0.161069
    15  H    0.019941
    16  H    0.020669
    17  H    0.018586
 Sum of Mulliken charges =  -0.00000
 Mulliken charges with hydrogens summed into heavy atoms:
               1
     1  C    0.008819
     2  C    0.033164
     3  C    0.038031
     4  C    0.133486
     5  C   -0.018949
     6  C    0.007449
    11  O   -0.111533
    13  O   -0.310732
    14  C    0.220266
 Electronic spatial extent (au):  <R**2>=           1170.6561
 Charge=              0.0000 electrons
 Dipole moment (field-independent basis, Debye):
    X=             -0.0304    Y=             -1.4046    Z=             -0.7494  Tot=              1.5923
 Quadrupole moment (field-independent basis, Debye-Ang):
   XX=            -46.3828   YY=            -49.4650   ZZ=            -53.7987
   XY=              3.4806   XZ=             -1.3295   YZ=             -3.8748
 Traceless Quadrupole moment (field-independent basis, Debye-Ang):
   XX=              3.4994   YY=              0.4172   ZZ=             -3.9165
   XY=              3.4806   XZ=             -1.3295   YZ=             -3.8748
 Octapole moment (field-independent basis, Debye-Ang**2):
  XXX=            -14.0391  YYY=             10.6042  ZZZ=             -1.7552  XYY=             -0.0218
  XXY=             -2.5322  XXZ=              5.5452  XZZ=             -6.6959  YZZ=              9.6541
  YYZ=            -13.5935  XYZ=             -1.0680
 Hexadecapole moment (field-independent basis, Debye-Ang**3):
 XXXX=           -805.1457 YYYY=           -512.8420 ZZZZ=            -73.8250 XXXY=             11.3810
 XXXZ=             -4.0631 YYYX=              0.0218 YYYZ=            -34.0237 ZZZX=             -0.5764
 ZZZY=             -6.4556 XXYY=           -231.5824 XXZZ=           -168.7138 YYZZ=            -99.3366
 XXYZ=              0.5646 YYXZ=             -0.6459 ZZXY=              3.8042
 N-N= 4.303820408346D+02 E-N=-1.845499769221D+03  KE= 4.192677359151D+02
 Calling FoFJK, ICntrl=      2127 FMM=F ISym2X=0 I1Cent= 0 IOpClX= 0 NMat=1 NMatS=1 NMatT=0.
 ***** Axes restored to original set *****
 -------------------------------------------------------------------
 Center     Atomic                   Forces (Hartrees/Bohr)
 Number     Number              X              Y              Z
 -------------------------------------------------------------------
      1        6          -0.005928243   -0.006767811    0.001081271
      2        6           0.001036449   -0.005164858   -0.001036104
      3        6           0.038808427   -0.003870606   -0.008295378
      4        6           0.013853391    0.036913703   -0.003061868
      5        6          -0.010095346   -0.000025668    0.000645645
      6        6          -0.006379506   -0.001018312   -0.000819540
      7        1           0.002947439    0.004080084    0.000179811
      8        1           0.000440975    0.006732749    0.000212306
      9        1           0.002413238   -0.009101750   -0.000882340
     10        1           0.004955257    0.000640023   -0.000102993
     11        8          -0.029223450   -0.001255940    0.015407622
     12        1          -0.002201778    0.001753183   -0.009325879
     13        8          -0.014454170   -0.033929259    0.006669926
     14        6           0.014037871   -0.010758639   -0.013202128
     15        1           0.016050777    0.014157300    0.000843562
     16        1          -0.017746732    0.013132819   -0.009497946
     17        1          -0.008514599   -0.005517018    0.021184035
 -------------------------------------------------------------------
 Cartesian Forces:  Max     0.038808427 RMS     0.012728323

 GradGradGradGradGradGradGradGradGradGradGradGradGradGradGradGradGradGrad
 Berny optimization.
 FormGI is forming the generalized inverse of G from B-inverse, IUseBI=4.
 Internal  Forces:  Max     0.050071567 RMS     0.010298307
 Search for a local minimum.
 Step number   1 out of a maximum of   84
 All quantities printed in internal units (Hartrees-Bohrs-Radians)
 Mixed Optimization -- RFO/linear search
 Second derivative matrix not updated -- first step.
 ITU=  0
     Eigenvalues ---    0.01295   0.01295   0.01295   0.01990   0.02006
     Eigenvalues ---    0.02152   0.02154   0.02155   0.02155   0.02155
     Eigenvalues ---    0.02156   0.02157   0.10344   0.10344   0.16000
     Eigenvalues ---    0.16000   0.16000   0.16000   0.16000   0.16000
     Eigenvalues ---    0.16000   0.16000   0.22000   0.22493   0.24487
     Eigenvalues ---    0.25000   0.25000   0.25000   0.33709   0.33720
     Eigenvalues ---    0.33725   0.33726   0.37230   0.37230   0.37230
     Eigenvalues ---    0.40989   0.40989   0.40989   0.42224   0.42380
     Eigenvalues ---    0.46412   0.46453   0.46466   0.46497   0.55473
 RFO step:  Lambda=-2.57611904D-02 EMin= 1.29493788D-02
 Linear search not attempted -- first point.
 Iteration  1 RMS(Cart)=  0.16063425 RMS(Int)=  0.01134809
 Iteration  2 RMS(Cart)=  0.03563112 RMS(Int)=  0.00081345
 Iteration  3 RMS(Cart)=  0.00089699 RMS(Int)=  0.00062001
 Iteration  4 RMS(Cart)=  0.00000083 RMS(Int)=  0.00062001
 Variable       Old X    -DE/DX   Delta X   Delta X   Delta X     New X
                                 (Linear)    (Quad)   (Total)
    R1        2.63647   0.00243   0.00000   0.00440   0.00437   2.64084
    R2        2.63584   0.00177   0.00000   0.00334   0.00328   2.63913
    R3        2.07796  -0.00501   0.00000  -0.01379  -0.01379   2.06417
    R4        2.63562  -0.00059   0.00000  -0.00151  -0.00149   2.63413
    R5        2.07805  -0.00561   0.00000  -0.01546  -0.01546   2.06259
    R6        2.63697   0.00506   0.00000   0.01060   0.01065   2.64763
    R7        2.70231  -0.03142   0.00000  -0.07213  -0.07213   2.63018
    R8        2.63584   0.00966   0.00000   0.02024   0.02028   2.65612
    R9        2.70231  -0.02516   0.00000  -0.05774  -0.05774   2.64456
   R10        2.63643   0.00336   0.00000   0.00715   0.00713   2.64356
   R11        2.07825  -0.00909   0.00000  -0.02505  -0.02505   2.05320
   R12        2.07795  -0.00496   0.00000  -0.01365  -0.01365   2.06430
   R13        1.81414   0.00805   0.00000   0.01387   0.01387   1.82801
   R14        2.70231   0.00522   0.00000   0.01198   0.01198   2.71429
   R15        2.02201   0.02070   0.00000   0.05200   0.05200   2.07401
   R16        2.02201   0.02303   0.00000   0.05786   0.05786   2.07987
   R17        2.02201   0.02313   0.00000   0.05810   0.05810   2.08011
    A1        2.09437  -0.00162   0.00000  -0.00838  -0.00843   2.08593
    A2        2.09435   0.00028   0.00000   0.00132   0.00134   2.09569
    A3        2.09447   0.00134   0.00000   0.00706   0.00708   2.10155
    A4        2.09455   0.00192   0.00000   0.00589   0.00590   2.10044
    A5        2.09406   0.00293   0.00000   0.01800   0.01796   2.11202
    A6        2.09458  -0.00485   0.00000  -0.02391  -0.02394   2.07064
    A7        2.09429   0.00277   0.00000   0.00984   0.00986   2.10415
    A8        2.09462  -0.00019   0.00000  -0.00056  -0.00075   2.09386
    A9        2.09427  -0.00259   0.00000  -0.00928  -0.00943   2.08484
   A10        2.09429  -0.00517   0.00000  -0.01742  -0.01748   2.07681
   A11        2.09407  -0.02240   0.00000  -0.08190  -0.08213   2.01194
   A12        2.09483   0.02758   0.00000   0.09934   0.09895   2.19377
   A13        2.09448   0.00072   0.00000   0.00451   0.00456   2.09904
   A14        2.09459   0.00220   0.00000   0.01152   0.01146   2.10606
   A15        2.09411  -0.00292   0.00000  -0.01603  -0.01611   2.07801
   A16        2.09440   0.00138   0.00000   0.00555   0.00552   2.09992
   A17        2.09453  -0.00002   0.00000   0.00081   0.00082   2.09536
   A18        2.09426  -0.00136   0.00000  -0.00636  -0.00634   2.08791
   A19        1.91114  -0.00942   0.00000  -0.05072  -0.05072   1.86042
   A20        1.91114   0.05007   0.00000   0.18158   0.18158   2.09271
   A21        1.91063  -0.01244   0.00000  -0.07346  -0.07315   1.83749
   A22        1.91063   0.01000   0.00000   0.05650   0.05552   1.96616
   A23        1.91063   0.00709   0.00000   0.04199   0.04091   1.95154
   A24        1.91063  -0.00284   0.00000  -0.02293  -0.02251   1.88812
   A25        1.91063  -0.00016   0.00000  -0.00621  -0.00601   1.90462
   A26        1.91063  -0.00165   0.00000   0.00412   0.00211   1.91275
    D1        0.00056   0.00045   0.00000   0.00938   0.00954   0.01010
    D2        3.14078  -0.00015   0.00000  -0.00297  -0.00334   3.13744
    D3       -3.14112   0.00022   0.00000   0.00453   0.00477  -3.13635
    D4       -0.00091  -0.00037   0.00000  -0.00782  -0.00810  -0.00901
    D5        0.00026  -0.00044   0.00000  -0.00955  -0.00935  -0.00909
    D6        3.14140  -0.00048   0.00000  -0.01038  -0.01049   3.13092
    D7       -3.14124  -0.00022   0.00000  -0.00470  -0.00457   3.13738
    D8       -0.00010  -0.00026   0.00000  -0.00553  -0.00571  -0.00580
    D9       -0.00099  -0.00002   0.00000   0.00027  -0.00010  -0.00109
   D10        3.14093  -0.00128   0.00000  -0.02738  -0.02811   3.11282
   D11       -3.14120   0.00057   0.00000   0.01259   0.01244  -3.12876
   D12        0.00072  -0.00069   0.00000  -0.01506  -0.01557  -0.01485
   D13        0.00060  -0.00042   0.00000  -0.00977  -0.00945  -0.00885
   D14       -3.14153   0.00141   0.00000   0.02995   0.02792  -3.11361
   D15       -3.14132   0.00084   0.00000   0.01788   0.01842  -3.12291
   D16       -0.00026   0.00267   0.00000   0.05760   0.05578   0.05552
   D17        1.56987   0.00214   0.00000   0.05281   0.05284   1.62271
   D18       -1.57140   0.00088   0.00000   0.02516   0.02513  -1.54626
   D19        0.00023   0.00042   0.00000   0.00960   0.00961   0.00984
   D20       -3.14158   0.00108   0.00000   0.02343   0.02393  -3.11765
   D21       -3.14083  -0.00139   0.00000  -0.03008  -0.03194   3.11042
   D22        0.00054  -0.00073   0.00000  -0.01626  -0.01761  -0.01707
   D23       -2.56934   0.00032   0.00000   0.01183   0.01158  -2.55776
   D24        0.57172   0.00213   0.00000   0.05153   0.05178   0.62350
   D25       -0.00066   0.00001   0.00000   0.00005  -0.00025  -0.00091
   D26        3.14138   0.00005   0.00000   0.00089   0.00088  -3.14092
   D27        3.14116  -0.00065   0.00000  -0.01377  -0.01435   3.12680
   D28        0.00001  -0.00061   0.00000  -0.01294  -0.01322  -0.01321
   D29        2.88642  -0.00024   0.00000  -0.01527  -0.01509   2.87133
   D30       -1.30237  -0.00521   0.00000  -0.05375  -0.05561  -1.35798
   D31        0.79203   0.00323   0.00000   0.01161   0.01329   0.80532
         Item               Value     Threshold  Converged?
 Maximum Force            0.050072     0.000450     NO 
 RMS     Force            0.010298     0.000300     NO 
 Maximum Displacement     0.709280     0.001800     NO 
 RMS     Displacement     0.190922     0.001200     NO 
 Predicted change in Energy=-1.422355D-02
 GradGradGradGradGradGradGradGradGradGradGradGradGradGradGradGradGradGrad

                          Input orientation:                          
 ---------------------------------------------------------------------
 Center     Atomic      Atomic             Coordinates (Angstroms)
 Number     Number       Type             X           Y           Z
 ---------------------------------------------------------------------
      1          6           0       -2.637206    1.311812   -0.046172
      2          6           0       -1.242666    1.398084   -0.019008
      3          6           0       -0.614673    2.641866    0.021597
      4          6           0       -1.370599    3.821439    0.034436
      5          6           0       -2.772781    3.732475   -0.005138
      6          6           0       -3.399113    2.482236   -0.044622
      7          1           0       -3.124767    0.334720   -0.073005
      8          1           0       -0.623629    0.499140   -0.015681
      9          1           0       -3.384869    4.630061   -0.018731
     10          1           0       -4.489560    2.425239   -0.075818
     11          8           0        0.773710    2.718059    0.083114
     12          1           0        1.087079    2.790985   -0.829152
     13          8           0       -0.627528    5.007293    0.040476
     14          6           0       -1.124485    6.160189    0.738288
     15          1           0       -0.263482    6.834114    0.833387
     16          1           0       -1.912759    6.686900    0.179218
     17          1           0       -1.493624    5.902684    1.742812
 ---------------------------------------------------------------------
                    Distance matrix (angstroms):
                    1          2          3          4          5
     1  C    0.000000
     2  C    1.397470   0.000000
     3  C    2.421627   1.393922   0.000000
     4  C    2.812298   2.427318   1.401065   0.000000
     5  C    2.424804   2.791205   2.418175   1.405558   0.000000
     6  C    1.396566   2.413774   2.789798   2.431992   1.398910
     7  H    1.092311   2.162397   3.410637   3.904595   3.416612
     8  H    2.171602   1.091474   2.143068   3.405605   3.882449
     9  H    3.401548   3.877462   3.410064   2.171170   1.086508
    10  H    2.161438   3.405965   3.882160   3.418984   2.158979
    11  O    3.691693   2.412164   1.391832   2.412028   3.689773
    12  H    4.083052   2.832705   1.908394   2.801393   4.057575
    13  O    4.207481   3.661738   2.365537   1.399443   2.495867
    14  C    5.139111   4.823392   3.626590   2.454736   3.027104
    15  H    6.074867   5.588901   4.284540   3.307604   4.076748
    16  H    5.428369   5.334782   4.251138   2.919891   3.082572
    17  H    5.058097   4.843389   3.790524   2.695415   3.066167
                    6          7          8          9         10
     6  C    0.000000
     7  H    2.165155   0.000000
     8  H    3.411278   2.507192   0.000000
     9  H    2.148029   4.303551   4.968799   0.000000
    10  H    1.092381   2.496585   4.319594   2.466747   0.000000
    11  O    4.181433   4.571958   2.624103   4.578199   5.273805
    12  H    4.564727   4.934029   2.973350   4.902785   5.639165
    13  O    3.750312   5.299247   4.508504   2.783656   4.647130
    14  C    4.394795   6.212521   5.732957   2.832615   5.092774
    15  H    5.435249   7.158954   6.401759   3.914973   6.174510
    16  H    4.465261   6.471690   6.323623   2.537100   4.986652
    17  H    4.304100   6.079477   5.748693   2.880870   4.937172
                   11         12         13         14         15
    11  O    0.000000
    12  H    0.967340   0.000000
    13  O    2.684377   2.933965   0.000000
    14  C    3.985055   4.324283   1.436342   0.000000
    15  H    4.310521   4.575473   2.024479   1.097518   0.000000
    16  H    4.793543   5.019362   2.119469   1.100618   1.780372
    17  H    4.247027   4.791419   2.109454   1.100746   1.791052
                   16         17
    16  H    0.000000
    17  H    1.798749   0.000000
 Stoichiometry    C7H8O2
 Framework group  C1[X(C7H8O2)]
 Deg. of freedom    45
 Full point group                 C1      NOp   1
 Largest Abelian subgroup         C1      NOp   1
 Largest concise Abelian subgroup C1      NOp   1
                         Standard orientation:                         
 ---------------------------------------------------------------------
 Center     Atomic      Atomic             Coordinates (Angstroms)
 Number     Number       Type             X           Y           Z
 ---------------------------------------------------------------------
      1          6           0        2.332198   -0.526754    0.106253
      2          6           0        1.802824    0.766419    0.125980
      3          6           0        0.428153    0.966489    0.010794
      4          6           0       -0.441207   -0.123500   -0.127476
      5          6           0        0.094612   -1.422533   -0.159195
      6          6           0        1.474692   -1.619035   -0.042077
      7          1           0        3.409668   -0.678665    0.201781
      8          1           0        2.450091    1.637236    0.244475
      9          1           0       -0.552375   -2.285896   -0.287684
     10          1           0        1.879976   -2.633102   -0.068699
     11          8           0       -0.093864    2.255545    0.065856
     12          1           0       -0.153978    2.568505   -0.847484
     13          8           0       -1.794028    0.205429   -0.269330
     14          6           0       -2.802382   -0.660009    0.275936
     15          1           0       -3.722097   -0.061228    0.287410
     16          1           0       -2.979588   -1.549712   -0.347271
     17          1           0       -2.561893   -0.971398    1.303966
 ---------------------------------------------------------------------
 Rotational constants (GHZ):           2.5818872           1.4952330           0.9678776
 Standard basis: CC-pVDZ (5D, 7F)
 There are   175 symmetry adapted cartesian basis functions of A   symmetry.
 There are   166 symmetry adapted basis functions of A   symmetry.
   166 basis functions,   353 primitive gaussians,   175 cartesian basis functions
    33 alpha electrons       33 beta electrons
       nuclear repulsion energy       428.9618071039 Hartrees.
 NAtoms=   17 NActive=   17 NUniq=   17 SFac= 1.00D+00 NAtFMM=   60 NAOKFM=F Big=F
 Integral buffers will be    131072 words long.
 Raffenetti 2 integral format.
 Two-electron integral symmetry is turned on.
 Nuclear repulsion after empirical dispersion term =      428.9508133465 Hartrees.
 One-electron integrals computed using PRISM.
 NBasis=   166 RedAO= T EigKep=  3.63D-04  NBF=   166
 NBsUse=   166 1.00D-06 EigRej= -1.00D+00 NBFU=   166
 Initial guess from the checkpoint file:  "guaicol_opt.chk"
 B after Tr=    -0.000000   -0.000000   -0.000000
         Rot=    0.999022    0.008882    0.004990   -0.043021 Ang=   5.07 deg.
 ExpMin= 1.22D-01 ExpMax= 1.17D+04 ExpMxC= 4.01D+02 IAcc=2 IRadAn=         4 AccDes= 0.00D+00
 Harris functional with IExCor=  402 and IRadAn=       4 diagonalized for initial guess.
 HarFok:  IExCor=  402 AccDes= 0.00D+00 IRadAn=         4 IDoV= 1 UseB2=F ITyADJ=14
 ICtDFT=  3500011 ScaDFX=  1.000000  1.000000  1.000000  1.000000
 FoFCou: FMM=F IPFlag=           0 FMFlag=      100000 FMFlg1=           0
         NFxFlg=           0 DoJE=T BraDBF=F KetDBF=T FulRan=T
         wScrn=  0.000000 ICntrl=       500 IOpCl=  0 I1Cent=   200000004 NGrid=           0
         NMat0=    1 NMatS0=      1 NMatT0=    0 NMatD0=    1 NMtDS0=    0 NMtDT0=    0
 Petite list used in FoFCou.
 Keep R1 ints in memory in canonical form, NReq=98797577.
 Requested convergence on RMS density matrix=1.00D-08 within 128 cycles.
 Requested convergence on MAX density matrix=1.00D-06.
 Requested convergence on             energy=1.00D-06.
 No special actions if energy rises.
 Integral accuracy reduced to 1.0D-05 until final iterations.
 Initial convergence to 1.0D-05 achieved.  Increase integral accuracy.
 SCF Done:  E(RB3LYP) =  -422.014340139     A.U. after   13 cycles
            NFock= 13  Conv=0.65D-08     -V/T= 2.0068
 Calling FoFJK, ICntrl=      2127 FMM=F ISym2X=0 I1Cent= 0 IOpClX= 0 NMat=1 NMatS=1 NMatT=0.
 ***** Axes restored to original set *****
 -------------------------------------------------------------------
 Center     Atomic                   Forces (Hartrees/Bohr)
 Number     Number              X              Y              Z
 -------------------------------------------------------------------
      1        6          -0.001342246   -0.000572430    0.000015076
      2        6          -0.002720021   -0.000517248   -0.000284630
      3        6           0.012663145   -0.004128379    0.000318130
      4        6           0.002561861    0.022140678    0.001190883
      5        6           0.004062909    0.001732864    0.001435336
      6        6           0.001032821   -0.000944681    0.000078014
      7        1           0.000141082    0.000247667   -0.000013317
      8        1           0.001313302    0.000762557    0.000168740
      9        1          -0.000031225    0.004451593    0.000743007
     10        1           0.000149280    0.000672445    0.000137644
     11        8          -0.006391898   -0.003798330    0.000526698
     12        1           0.001987793    0.002663444   -0.000702466
     13        8          -0.011594207   -0.011749395    0.001963004
     14        6           0.002032275   -0.009483744   -0.005423931
     15        1           0.001005748    0.000524187    0.000229938
     16        1          -0.003393154   -0.000399083   -0.001882949
     17        1          -0.001477466   -0.001602146    0.001500822
 -------------------------------------------------------------------
 Cartesian Forces:  Max     0.022140678 RMS     0.004896697

 GradGradGradGradGradGradGradGradGradGradGradGradGradGradGradGradGradGrad
 Berny optimization.
 Using GEDIIS/GDIIS optimizer.
 FormGI is forming the generalized inverse of G from B-inverse, IUseBI=4.
 Internal  Forces:  Max     0.026389626 RMS     0.004622876
 Search for a local minimum.
 Step number   2 out of a maximum of   84
 All quantities printed in internal units (Hartrees-Bohrs-Radians)
 Mixed Optimization -- RFO/linear search
 Update second derivatives using D2CorX and points    1    2
 DE= -9.49D-03 DEPred=-1.42D-02 R= 6.68D-01
 TightC=F SS=  1.41D+00  RLast= 3.21D-01 DXNew= 5.0454D-01 9.6267D-01
 Trust test= 6.68D-01 RLast= 3.21D-01 DXMaxT set to 5.05D-01
 ITU=  1  0
 Use linear search instead of GDIIS.
     Eigenvalues ---    0.01281   0.01295   0.01319   0.02005   0.02011
     Eigenvalues ---    0.02145   0.02154   0.02155   0.02155   0.02156
     Eigenvalues ---    0.02157   0.02161   0.09981   0.10638   0.15776
     Eigenvalues ---    0.15999   0.16000   0.16000   0.16000   0.16000
     Eigenvalues ---    0.16000   0.16317   0.21974   0.22490   0.24302
     Eigenvalues ---    0.24970   0.24990   0.29444   0.32840   0.33722
     Eigenvalues ---    0.33726   0.33788   0.34803   0.37230   0.37239
     Eigenvalues ---    0.39733   0.40989   0.42071   0.42416   0.45427
     Eigenvalues ---    0.46337   0.46458   0.46485   0.50216   0.55430
 RFO step:  Lambda=-4.25089867D-03 EMin= 1.28117241D-02
 Quartic linear search produced a step of -0.16639.
 Iteration  1 RMS(Cart)=  0.09199765 RMS(Int)=  0.00370542
 Iteration  2 RMS(Cart)=  0.00511357 RMS(Int)=  0.00008983
 Iteration  3 RMS(Cart)=  0.00001757 RMS(Int)=  0.00008925
 Iteration  4 RMS(Cart)=  0.00000000 RMS(Int)=  0.00008925
 Variable       Old X    -DE/DX   Delta X   Delta X   Delta X     New X
                                 (Linear)    (Quad)   (Total)
    R1        2.64084   0.00176  -0.00073   0.00477   0.00406   2.64489
    R2        2.63913   0.00089  -0.00055   0.00251   0.00198   2.64111
    R3        2.06417  -0.00028   0.00230  -0.00507  -0.00277   2.06140
    R4        2.63413   0.00090   0.00025   0.00147   0.00172   2.63585
    R5        2.06259   0.00012   0.00257  -0.00462  -0.00205   2.06054
    R6        2.64763   0.00666  -0.00177   0.01542   0.01363   2.66126
    R7        2.63018  -0.00446   0.01200  -0.03219  -0.02019   2.60999
    R8        2.65612  -0.00618  -0.00337  -0.00460  -0.00799   2.64813
    R9        2.64456  -0.02639   0.00961  -0.07160  -0.06199   2.58257
   R10        2.64356   0.00006  -0.00119   0.00206   0.00087   2.64443
   R11        2.05320   0.00369   0.00417   0.00104   0.00521   2.05841
   R12        2.06430  -0.00019   0.00227  -0.00479  -0.00252   2.06178
   R13        1.82801   0.00151  -0.00231   0.00679   0.00448   1.83249
   R14        2.71429  -0.01087  -0.00199  -0.01798  -0.01997   2.69432
   R15        2.07401   0.00113  -0.00865   0.01912   0.01047   2.08448
   R16        2.07987   0.00320  -0.00963   0.02556   0.01593   2.09580
   R17        2.08011   0.00224  -0.00967   0.02353   0.01386   2.09397
    A1        2.08593   0.00024   0.00140  -0.00143  -0.00004   2.08589
    A2        2.09569  -0.00014  -0.00022  -0.00018  -0.00041   2.09528
    A3        2.10155  -0.00011  -0.00118   0.00164   0.00045   2.10200
    A4        2.10044   0.00047  -0.00098   0.00476   0.00375   2.10419
    A5        2.11202   0.00132  -0.00299   0.01148   0.00850   2.12051
    A6        2.07064  -0.00180   0.00398  -0.01639  -0.01241   2.05823
    A7        2.10415  -0.00430  -0.00164  -0.01012  -0.01179   2.09235
    A8        2.09386   0.00156   0.00013   0.00438   0.00455   2.09842
    A9        2.08484   0.00274   0.00157   0.00557   0.00719   2.09203
   A10        2.07681   0.00398   0.00291   0.00759   0.01045   2.08726
   A11        2.01194   0.00620   0.01366  -0.00481   0.00891   2.02085
   A12        2.19377  -0.01019  -0.01646  -0.00272  -0.01911   2.17466
   A13        2.09904  -0.00088  -0.00076  -0.00308  -0.00390   2.09514
   A14        2.10606  -0.00213  -0.00191  -0.00748  -0.00936   2.09669
   A15        2.07801   0.00301   0.00268   0.01061   0.01332   2.09133
   A16        2.09992   0.00048  -0.00092   0.00245   0.00150   2.10142
   A17        2.09536   0.00045  -0.00014   0.00329   0.00316   2.09852
   A18        2.08791  -0.00093   0.00106  -0.00574  -0.00467   2.08324
   A19        1.86042   0.00318   0.00844   0.00152   0.00996   1.87038
   A20        2.09271  -0.01896  -0.03021  -0.00614  -0.03635   2.05636
   A21        1.83749   0.00120   0.01217  -0.01164   0.00047   1.83796
   A22        1.96616  -0.00217  -0.00924   0.00332  -0.00579   1.96036
   A23        1.95154  -0.00153  -0.00681   0.00185  -0.00480   1.94674
   A24        1.88812   0.00176   0.00375   0.00631   0.00998   1.89810
   A25        1.90462   0.00108   0.00100   0.00649   0.00746   1.91208
   A26        1.91275  -0.00006  -0.00035  -0.00597  -0.00603   1.90671
    D1        0.01010  -0.00005  -0.00159  -0.00115  -0.00267   0.00743
    D2        3.13744  -0.00041   0.00056  -0.01370  -0.01307   3.12437
    D3       -3.13635   0.00019  -0.00079   0.00676   0.00599  -3.13036
    D4       -0.00901  -0.00018   0.00135  -0.00579  -0.00441  -0.01342
    D5       -0.00909   0.00026   0.00156   0.00952   0.01107   0.00198
    D6        3.13092   0.00026   0.00174   0.00860   0.01035   3.14126
    D7        3.13738   0.00002   0.00076   0.00160   0.00238   3.13976
    D8       -0.00580   0.00003   0.00095   0.00068   0.00166  -0.00414
    D9       -0.00109  -0.00043   0.00002  -0.01500  -0.01486  -0.01595
   D10        3.11282  -0.00061   0.00468  -0.02186  -0.01703   3.09579
   D11       -3.12876  -0.00010  -0.00207  -0.00296  -0.00499  -3.13375
   D12       -0.01485  -0.00028   0.00259  -0.00982  -0.00716  -0.02201
   D13       -0.00885   0.00063   0.00157   0.02233   0.02387   0.01501
   D14       -3.11361   0.00087  -0.00464   0.02068   0.01629  -3.09733
   D15       -3.12291   0.00083  -0.00306   0.02917   0.02607  -3.09684
   D16        0.05552   0.00107  -0.00928   0.02753   0.01849   0.07401
   D17        1.62271   0.00233  -0.00879   0.10164   0.09287   1.71558
   D18       -1.54626   0.00204  -0.00418   0.09461   0.09040  -1.45586
   D19        0.00984  -0.00040  -0.00160  -0.01389  -0.01555  -0.00571
   D20       -3.11765  -0.00059  -0.00398  -0.01842  -0.02249  -3.14014
   D21        3.11042  -0.00024   0.00531  -0.01207  -0.00653   3.10388
   D22       -0.01707  -0.00043   0.00293  -0.01661  -0.01348  -0.03055
   D23       -2.55776  -0.00297  -0.00193  -0.15186  -0.15375  -2.71151
   D24        0.62350  -0.00309  -0.00862  -0.15387  -0.16252   0.46098
   D25       -0.00091  -0.00003   0.00004  -0.00190  -0.00187  -0.00278
   D26       -3.14092  -0.00004  -0.00015  -0.00099  -0.00116   3.14111
   D27        3.12680   0.00011   0.00239   0.00242   0.00487   3.13168
   D28       -0.01321   0.00011   0.00220   0.00333   0.00558  -0.00763
   D29        2.87133   0.00013   0.00251   0.01813   0.02061   2.89194
   D30       -1.35798   0.00184   0.00925   0.02033   0.02986  -1.32811
   D31        0.80532  -0.00108  -0.00221   0.01638   0.01392   0.81924
         Item               Value     Threshold  Converged?
 Maximum Force            0.026390     0.000450     NO 
 RMS     Force            0.004623     0.000300     NO 
 Maximum Displacement     0.307336     0.001800     NO 
 RMS     Displacement     0.092445     0.001200     NO 
 Predicted change in Energy=-2.624443D-03
 GradGradGradGradGradGradGradGradGradGradGradGradGradGradGradGradGradGrad

                          Input orientation:                          
 ---------------------------------------------------------------------
 Center     Atomic      Atomic             Coordinates (Angstroms)
 Number     Number       Type             X           Y           Z
 ---------------------------------------------------------------------
      1          6           0       -2.643208    1.340104   -0.067611
      2          6           0       -1.244538    1.390900   -0.059106
      3          6           0       -0.579781    2.614254    0.024936
      4          6           0       -1.318618    3.811770    0.082603
      5          6           0       -2.719030    3.761986    0.073198
      6          6           0       -3.375733    2.528451   -0.000076
      7          1           0       -3.154566    0.378136   -0.123025
      8          1           0       -0.641304    0.483260   -0.094480
      9          1           0       -3.299212    4.682877    0.116117
     10          1           0       -4.466459    2.502619   -0.006204
     11          8           0        0.799403    2.653383    0.087350
     12          1           0        1.121374    2.835973   -0.808940
     13          8           0       -0.583213    4.963367    0.109101
     14          6           0       -1.180396    6.121066    0.688700
     15          1           0       -0.350096    6.830604    0.843290
     16          1           0       -1.929316    6.589282    0.017968
     17          1           0       -1.656259    5.889262    1.662180
 ---------------------------------------------------------------------
                    Distance matrix (angstroms):
                    1          2          3          4          5
     1  C    0.000000
     2  C    1.399617   0.000000
     3  C    2.426882   1.394834   0.000000
     4  C    2.808244   2.426146   1.408280   0.000000
     5  C    2.427156   2.795295   2.428169   1.401328   0.000000
     6  C    1.397613   2.416505   2.797381   2.425998   1.399370
     7  H    1.090844   2.162865   3.413450   3.899081   3.417402
     8  H    2.177734   1.090392   2.135224   3.401337   3.885242
     9  H    3.411484   3.884520   3.418014   2.163955   1.089262
    10  H    2.163205   3.408737   3.888406   3.410377   2.155416
    11  O    3.687857   2.406867   1.381150   2.414104   3.688980
    12  H    4.118163   2.871938   1.907468   2.774994   4.047761
    13  O    4.171671   3.637054   2.350623   1.366637   2.450780
    14  C    5.056621   4.789342   3.619261   2.391506   2.882967
    15  H    6.019443   5.586119   4.301170   3.260373   3.952380
    16  H    5.298192   5.243857   4.197874   2.844592   2.936036
    17  H    4.965993   4.834005   3.816419   2.631547   2.860010
                    6          7          8          9         10
     6  C    0.000000
     7  H    2.165152   0.000000
     8  H    3.415966   2.515622   0.000000
     9  H    2.158914   4.313804   4.974496   0.000000
    10  H    1.091049   2.499627   4.326363   2.476076   0.000000
    11  O    4.177920   4.566715   2.611156   4.573655   5.268851
    12  H    4.579608   4.979469   3.025350   4.879381   5.655033
    13  O    3.706603   5.262137   4.485106   2.730453   4.598715
    14  C    4.266240   6.126784   5.717416   2.624047   4.937030
    15  H    5.326750   7.101631   6.422849   3.720053   6.033038
    16  H    4.310778   6.332413   6.241405   2.349602   4.810249
    17  H    4.124893   5.983678   5.774154   2.558314   4.706388
                   11         12         13         14         15
    11  O    0.000000
    12  H    0.969711   0.000000
    13  O    2.692234   2.876495   0.000000
    14  C    4.038074   4.281694   1.425772   0.000000
    15  H    4.397950   4.566417   2.019889   1.103059   0.000000
    16  H    4.789784   4.906916   2.112795   1.109049   1.798146
    17  H    4.356751   4.810848   2.102561   1.108081   1.806313
                   16         17
    16  H    0.000000
    17  H    1.807767   0.000000
 Stoichiometry    C7H8O2
 Framework group  C1[X(C7H8O2)]
 Deg. of freedom    45
 Full point group                 C1      NOp   1
 Largest Abelian subgroup         C1      NOp   1
 Largest concise Abelian subgroup C1      NOp   1
                         Standard orientation:                         
 ---------------------------------------------------------------------
 Center     Atomic      Atomic             Coordinates (Angstroms)
 Number     Number       Type             X           Y           Z
 ---------------------------------------------------------------------
      1          6           0        2.289806   -0.624345    0.065322
      2          6           0        1.832615    0.698351    0.084786
      3          6           0        0.467869    0.978103    0.015743
      4          6           0       -0.459747   -0.075830   -0.093819
      5          6           0       -0.002898   -1.400440   -0.114330
      6          6           0        1.367844   -1.670102   -0.033173
      7          1           0        3.358339   -0.833992    0.130335
      8          1           0        2.522058    1.538105    0.176635
      9          1           0       -0.712556   -2.222335   -0.200149
     10          1           0        1.711240   -2.705570   -0.049662
     11          8           0        0.020850    2.282805    0.089930
     12          1           0       -0.136895    2.583360   -0.818433
     13          8           0       -1.770001    0.295024   -0.209577
     14          6           0       -2.764860   -0.638251    0.205250
     15          1           0       -3.699046   -0.055957    0.275756
     16          1           0       -2.908751   -1.455427   -0.530623
     17          1           0       -2.524960   -1.075727    1.194646
 ---------------------------------------------------------------------
 Rotational constants (GHZ):           2.5501566           1.5449094           0.9780607
 Standard basis: CC-pVDZ (5D, 7F)
 There are   175 symmetry adapted cartesian basis functions of A   symmetry.
 There are   166 symmetry adapted basis functions of A   symmetry.
   166 basis functions,   353 primitive gaussians,   175 cartesian basis functions
    33 alpha electrons       33 beta electrons
       nuclear repulsion energy       431.1190533749 Hartrees.
 NAtoms=   17 NActive=   17 NUniq=   17 SFac= 1.00D+00 NAtFMM=   60 NAOKFM=F Big=F
 Integral buffers will be    131072 words long.
 Raffenetti 2 integral format.
 Two-electron integral symmetry is turned on.
 Nuclear repulsion after empirical dispersion term =      431.1079016799 Hartrees.
 One-electron integrals computed using PRISM.
 NBasis=   166 RedAO= T EigKep=  3.69D-04  NBF=   166
 NBsUse=   166 1.00D-06 EigRej= -1.00D+00 NBFU=   166
 Initial guess from the checkpoint file:  "guaicol_opt.chk"
 B after Tr=     0.000000   -0.000000    0.000000
         Rot=    0.999833   -0.004393   -0.001352    0.017663 Ang=  -2.09 deg.
 ExpMin= 1.22D-01 ExpMax= 1.17D+04 ExpMxC= 4.01D+02 IAcc=2 IRadAn=         4 AccDes= 0.00D+00
 Harris functional with IExCor=  402 and IRadAn=       4 diagonalized for initial guess.
 HarFok:  IExCor=  402 AccDes= 0.00D+00 IRadAn=         4 IDoV= 1 UseB2=F ITyADJ=14
 ICtDFT=  3500011 ScaDFX=  1.000000  1.000000  1.000000  1.000000
 FoFCou: FMM=F IPFlag=           0 FMFlag=      100000 FMFlg1=           0
         NFxFlg=           0 DoJE=T BraDBF=F KetDBF=T FulRan=T
         wScrn=  0.000000 ICntrl=       500 IOpCl=  0 I1Cent=   200000004 NGrid=           0
         NMat0=    1 NMatS0=      1 NMatT0=    0 NMatD0=    1 NMtDS0=    0 NMtDT0=    0
 Petite list used in FoFCou.
 Keep R1 ints in memory in canonical form, NReq=98797577.
 Requested convergence on RMS density matrix=1.00D-08 within 128 cycles.
 Requested convergence on MAX density matrix=1.00D-06.
 Requested convergence on             energy=1.00D-06.
 No special actions if energy rises.
 Integral accuracy reduced to 1.0D-05 until final iterations.
 Initial convergence to 1.0D-05 achieved.  Increase integral accuracy.
 SCF Done:  E(RB3LYP) =  -422.017669516     A.U. after   12 cycles
            NFock= 12  Conv=0.39D-08     -V/T= 2.0066
 Calling FoFJK, ICntrl=      2127 FMM=F ISym2X=0 I1Cent= 0 IOpClX= 0 NMat=1 NMatS=1 NMatT=0.
 ***** Axes restored to original set *****
 -------------------------------------------------------------------
 Center     Atomic                   Forces (Hartrees/Bohr)
 Number     Number              X              Y              Z
 -------------------------------------------------------------------
      1        6          -0.000853547    0.001553249    0.000582619
      2        6          -0.001526278    0.001763198    0.000954997
      3        6          -0.000084894   -0.003562364   -0.000721291
      4        6          -0.001092678    0.003949718   -0.001643983
      5        6           0.000900515   -0.000748879    0.001006642
      6        6           0.001481054   -0.001714652   -0.000269203
      7        1          -0.000326475   -0.000534333   -0.000136917
      8        1           0.000815949   -0.000674190   -0.000093283
      9        1          -0.000363368    0.000757007    0.000089793
     10        1          -0.000792655   -0.000021107    0.000061888
     11        8           0.000699863   -0.002839023   -0.002125151
     12        1           0.001147775    0.002907929    0.001622773
     13        8          -0.001253939    0.000840540    0.003507382
     14        6           0.002207882    0.000483516   -0.001916553
     15        1          -0.002900418   -0.000900696    0.000029209
     16        1           0.001116820   -0.001530485    0.001257660
     17        1           0.000824395    0.000270573   -0.002206585
 -------------------------------------------------------------------
 Cartesian Forces:  Max     0.003949718 RMS     0.001545870

 GradGradGradGradGradGradGradGradGradGradGradGradGradGradGradGradGradGrad
 Berny optimization.
 Using GEDIIS/GDIIS optimizer.
 FormGI is forming the generalized inverse of G from B-inverse, IUseBI=4.
 Internal  Forces:  Max     0.003036316 RMS     0.001142412
 Search for a local minimum.
 Step number   3 out of a maximum of   84
 All quantities printed in internal units (Hartrees-Bohrs-Radians)
 Mixed Optimization -- RFO/linear search
 Update second derivatives using D2CorX and points    1    2    3
 DE= -3.33D-03 DEPred=-2.62D-03 R= 1.27D+00
 TightC=F SS=  1.41D+00  RLast= 2.84D-01 DXNew= 8.4853D-01 8.5298D-01
 Trust test= 1.27D+00 RLast= 2.84D-01 DXMaxT set to 8.49D-01
 ITU=  1  1  0
 Use linear search instead of GDIIS.
     Eigenvalues ---    0.00818   0.01296   0.01316   0.02004   0.02008
     Eigenvalues ---    0.02154   0.02154   0.02155   0.02156   0.02157
     Eigenvalues ---    0.02160   0.02191   0.09968   0.10636   0.15790
     Eigenvalues ---    0.15998   0.16000   0.16000   0.16000   0.16000
     Eigenvalues ---    0.16127   0.16420   0.21979   0.22453   0.24551
     Eigenvalues ---    0.24968   0.25017   0.29308   0.33718   0.33725
     Eigenvalues ---    0.33766   0.33858   0.37207   0.37231   0.38166
     Eigenvalues ---    0.40500   0.41452   0.41595   0.42370   0.45905
     Eigenvalues ---    0.46237   0.46468   0.46549   0.51583   0.55603
 RFO step:  Lambda=-1.68519615D-03 EMin= 8.17633300D-03
 Quartic linear search produced a step of  0.31967.
 Iteration  1 RMS(Cart)=  0.09728364 RMS(Int)=  0.00915856
 Iteration  2 RMS(Cart)=  0.01179678 RMS(Int)=  0.00021457
 Iteration  3 RMS(Cart)=  0.00022017 RMS(Int)=  0.00002134
 Iteration  4 RMS(Cart)=  0.00000013 RMS(Int)=  0.00002134
 Variable       Old X    -DE/DX   Delta X   Delta X   Delta X     New X
                                 (Linear)    (Quad)   (Total)
    R1        2.64489   0.00020   0.00130   0.00067   0.00197   2.64686
    R2        2.64111  -0.00167   0.00063  -0.00450  -0.00387   2.63724
    R3        2.06140   0.00063  -0.00089   0.00103   0.00015   2.06154
    R4        2.63585  -0.00032   0.00055  -0.00094  -0.00039   2.63547
    R5        2.06054   0.00102  -0.00065   0.00225   0.00160   2.06214
    R6        2.66126   0.00277   0.00436   0.00837   0.01273   2.67400
    R7        2.60999   0.00182  -0.00645  -0.00116  -0.00761   2.60238
    R8        2.64813  -0.00023  -0.00256   0.00197  -0.00059   2.64753
    R9        2.58257  -0.00070  -0.01982  -0.00576  -0.02558   2.55699
   R10        2.64443   0.00050   0.00028   0.00192   0.00219   2.64662
   R11        2.05841   0.00084   0.00166   0.00032   0.00198   2.06039
   R12        2.06178   0.00079  -0.00080   0.00163   0.00083   2.06261
   R13        1.83249  -0.00057   0.00143   0.00002   0.00145   1.83394
   R14        2.69432  -0.00304  -0.00638  -0.00724  -0.01363   2.68069
   R15        2.08448  -0.00276   0.00335  -0.00429  -0.00094   2.08354
   R16        2.09580  -0.00216   0.00509  -0.00190   0.00320   2.09900
   R17        2.09397  -0.00235   0.00443  -0.00242   0.00201   2.09598
    A1        2.08589  -0.00001  -0.00001  -0.00200  -0.00203   2.08387
    A2        2.09528   0.00004  -0.00013   0.00104   0.00090   2.09619
    A3        2.10200  -0.00003   0.00014   0.00099   0.00113   2.10313
    A4        2.10419   0.00069   0.00120   0.00410   0.00529   2.10948
    A5        2.12051  -0.00004   0.00272   0.00171   0.00442   2.12493
    A6        2.05823  -0.00066  -0.00397  -0.00589  -0.00987   2.04836
    A7        2.09235  -0.00067  -0.00377  -0.00118  -0.00497   2.08738
    A8        2.09842   0.00094   0.00146   0.00397   0.00540   2.10382
    A9        2.09203  -0.00027   0.00230  -0.00308  -0.00080   2.09123
   A10        2.08726  -0.00074   0.00334  -0.00514  -0.00182   2.08544
   A11        2.02085   0.00128   0.00285  -0.00270   0.00015   2.02100
   A12        2.17466  -0.00055  -0.00611   0.00759   0.00147   2.17613
   A13        2.09514   0.00047  -0.00125   0.00330   0.00204   2.09718
   A14        2.09669  -0.00033  -0.00299  -0.00047  -0.00346   2.09323
   A15        2.09133  -0.00013   0.00426  -0.00283   0.00144   2.09276
   A16        2.10142   0.00026   0.00048   0.00093   0.00139   2.10281
   A17        2.09852  -0.00013   0.00101  -0.00034   0.00068   2.09920
   A18        2.08324  -0.00013  -0.00149  -0.00059  -0.00207   2.08117
   A19        1.87038   0.00282   0.00318   0.01647   0.01966   1.89003
   A20        2.05636  -0.00172  -0.01162   0.01126  -0.00036   2.05600
   A21        1.83796   0.00244   0.00015   0.01437   0.01451   1.85247
   A22        1.96036  -0.00106  -0.00185  -0.00392  -0.00581   1.95455
   A23        1.94674  -0.00063  -0.00154  -0.00196  -0.00354   1.94319
   A24        1.89810  -0.00013   0.00319  -0.00142   0.00177   1.89987
   A25        1.91208  -0.00027   0.00238  -0.00062   0.00174   1.91382
   A26        1.90671  -0.00026  -0.00193  -0.00574  -0.00774   1.89898
    D1        0.00743   0.00011  -0.00085   0.00674   0.00593   0.01336
    D2        3.12437  -0.00000  -0.00418   0.00313  -0.00107   3.12331
    D3       -3.13036   0.00003   0.00191  -0.00027   0.00169  -3.12867
    D4       -0.01342  -0.00009  -0.00141  -0.00388  -0.00531  -0.01873
    D5        0.00198  -0.00003   0.00354  -0.00492  -0.00136   0.00062
    D6        3.14126  -0.00002   0.00331  -0.00380  -0.00049   3.14077
    D7        3.13976   0.00005   0.00076   0.00212   0.00290  -3.14053
    D8       -0.00414   0.00007   0.00053   0.00324   0.00377  -0.00037
    D9       -0.01595  -0.00012  -0.00475  -0.00246  -0.00719  -0.02314
   D10        3.09579  -0.00033  -0.00544  -0.01383  -0.01928   3.07651
   D11       -3.13375  -0.00001  -0.00160   0.00093  -0.00068  -3.13443
   D12       -0.02201  -0.00022  -0.00229  -0.01045  -0.01277  -0.03478
   D13        0.01501   0.00005   0.00763  -0.00370   0.00393   0.01894
   D14       -3.09733   0.00018   0.00521   0.00525   0.01042  -3.08691
   D15       -3.09684   0.00024   0.00833   0.00751   0.01582  -3.08101
   D16        0.07401   0.00037   0.00591   0.01646   0.02231   0.09632
   D17        1.71558   0.00284   0.02969   0.20257   0.23229   1.94787
   D18       -1.45586   0.00262   0.02890   0.19123   0.22010  -1.23575
   D19       -0.00571   0.00002  -0.00497   0.00545   0.00044  -0.00527
   D20       -3.14014  -0.00000  -0.00719   0.00601  -0.00118  -3.14132
   D21        3.10388  -0.00010  -0.00209  -0.00455  -0.00669   3.09719
   D22       -0.03055  -0.00012  -0.00431  -0.00399  -0.00831  -0.03886
   D23       -2.71151  -0.00243  -0.04915  -0.14840  -0.19757  -2.90908
   D24        0.46098  -0.00228  -0.05195  -0.13869  -0.19063   0.27035
   D25       -0.00278  -0.00002  -0.00060  -0.00114  -0.00175  -0.00452
   D26        3.14111  -0.00004  -0.00037  -0.00225  -0.00262   3.13849
   D27        3.13168  -0.00000   0.00156  -0.00169  -0.00015   3.13153
   D28       -0.00763  -0.00002   0.00178  -0.00280  -0.00102  -0.00865
   D29        2.89194   0.00026   0.00659   0.01485   0.02145   2.91339
   D30       -1.32811   0.00104   0.00955   0.01987   0.02937  -1.29874
   D31        0.81924  -0.00055   0.00445   0.00800   0.01249   0.83172
         Item               Value     Threshold  Converged?
 Maximum Force            0.003036     0.000450     NO 
 RMS     Force            0.001142     0.000300     NO 
 Maximum Displacement     0.339596     0.001800     NO 
 RMS     Displacement     0.100843     0.001200     NO 
 Predicted change in Energy=-1.536530D-03
 GradGradGradGradGradGradGradGradGradGradGradGradGradGradGradGradGradGrad

                          Input orientation:                          
 ---------------------------------------------------------------------
 Center     Atomic      Atomic             Coordinates (Angstroms)
 Number     Number       Type             X           Y           Z
 ---------------------------------------------------------------------
      1          6           0       -2.659647    1.342669   -0.093950
      2          6           0       -1.259461    1.374105   -0.112176
      3          6           0       -0.569027    2.578189    0.023738
      4          6           0       -1.292025    3.787574    0.153883
      5          6           0       -2.692613    3.755697    0.167313
      6          6           0       -3.369858    2.535787    0.046323
      7          1           0       -3.186891    0.392380   -0.189209
      8          1           0       -0.665779    0.463011   -0.203017
      9          1           0       -3.256991    4.683233    0.266987
     10          1           0       -4.461211    2.528010    0.061565
     11          8           0        0.806796    2.593248    0.081617
     12          1           0        1.141161    3.010645   -0.728203
     13          8           0       -0.546911    4.915404    0.214642
     14          6           0       -1.188216    6.110439    0.630499
     15          1           0       -0.382698    6.833268    0.840976
     16          1           0       -1.846094    6.526734   -0.161738
     17          1           0       -1.791486    5.946900    1.546753
 ---------------------------------------------------------------------
                    Distance matrix (angstroms):
                    1          2          3          4          5
     1  C    0.000000
     2  C    1.400658   0.000000
     3  C    2.431265   1.394629   0.000000
     4  C    2.812360   2.428308   1.415018   0.000000
     5  C    2.427354   2.793568   2.432439   1.401015   0.000000
     6  C    1.395567   2.414209   2.801243   2.428154   1.400529
     7  H    1.090921   2.164418   3.417063   3.903277   3.418088
     8  H    2.182019   1.091239   2.129496   3.401805   3.884196
     9  H    3.412692   3.883841   3.422796   2.162427   1.090312
    10  H    2.162140   3.407769   3.892691   3.411563   2.155536
    11  O    3.689309   2.406924   1.377122   2.415923   3.688427
    12  H    4.198877   2.969973   1.917597   2.702238   4.006854
    13  O    4.162130   3.627029   2.345104   1.353103   2.439508
    14  C    5.041981   4.794737   3.637079   2.373530   2.832413
    15  H    6.017081   5.610675   4.336853   3.251957   3.906530
    16  H    5.247952   5.186153   4.154072   2.812403   2.916079
    17  H    4.964328   4.893419   3.893867   2.617678   2.741579
                    6          7          8          9         10
     6  C    0.000000
     7  H    2.164058   0.000000
     8  H    3.416228   2.522139   0.000000
     9  H    2.161703   4.315606   4.974491   0.000000
    10  H    1.091487   2.499540   4.328918   2.477364   0.000000
    11  O    4.177199   4.568009   2.605264   4.573485   5.268449
    12  H    4.601595   5.087029   3.167221   4.809543   5.678314
    13  O    3.695936   5.252651   4.473519   2.720510   4.587465
    14  C    4.228353   6.112514   5.732463   2.539466   4.885692
    15  H    5.293670   7.099987   6.461441   3.635062   5.981388
    16  H    4.277009   6.279235   6.177668   2.360705   4.783147
    17  H    4.047004   5.984431   5.865318   2.319991   4.584978
                   11         12         13         14         15
    11  O    0.000000
    12  H    0.970479   0.000000
    13  O    2.691213   2.714158   0.000000
    14  C    4.080683   4.108624   1.418562   0.000000
    15  H    4.468701   4.404193   2.024218   1.102561   0.000000
    16  H    4.750722   4.648383   2.103788   1.110741   1.800258
    17  H    4.488282   4.732594   2.094629   1.109144   1.807886
                   16         17
    16  H    0.000000
    17  H    1.805030   0.000000
 Stoichiometry    C7H8O2
 Framework group  C1[X(C7H8O2)]
 Deg. of freedom    45
 Full point group                 C1      NOp   1
 Largest Abelian subgroup         C1      NOp   1
 Largest concise Abelian subgroup C1      NOp   1
                         Standard orientation:                         
 ---------------------------------------------------------------------
 Center     Atomic      Atomic             Coordinates (Angstroms)
 Number     Number       Type             X           Y           Z
 ---------------------------------------------------------------------
      1          6           0        2.279401   -0.660905    0.024769
      2          6           0        1.849358    0.672078    0.032657
      3          6           0        0.490549    0.985591    0.014324
      4          6           0       -0.466227   -0.055461   -0.041060
      5          6           0       -0.035039   -1.388413   -0.053643
      6          6           0        1.333101   -1.685742   -0.018044
      7          1           0        3.345196   -0.892153    0.051507
      8          1           0        2.555141    1.502849    0.082573
      9          1           0       -0.765980   -2.196294   -0.096473
     10          1           0        1.652283   -2.729491   -0.025498
     11          8           0        0.073362    2.295247    0.099311
     12          1           0       -0.315842    2.546868   -0.753353
     13          8           0       -1.758798    0.336460   -0.121984
     14          6           0       -2.761827   -0.639643    0.109257
     15          1           0       -3.706371   -0.084812    0.234314
[...]
 ! D5    D(2,1,6,5)              0.0109         -DE/DX =    0.0                 !
 ! D6    D(2,1,6,10)          -179.9975         -DE/DX =    0.0                 !
 ! D7    D(7,1,6,5)           -179.9953         -DE/DX =    0.0                 !
 ! D8    D(7,1,6,10)            -0.0036         -DE/DX =    0.0                 !
 ! D9    D(1,2,3,4)             -0.0074         -DE/DX =    0.0                 !
 ! D10   D(1,2,3,11)           180.0066         -DE/DX =    0.0                 !
 ! D11   D(8,2,3,4)           -180.0062         -DE/DX =    0.0                 !
 ! D12   D(8,2,3,11)             0.0079         -DE/DX =    0.0                 !
 ! D13   D(2,3,4,5)              0.0132         -DE/DX =    0.0                 !
 ! D14   D(2,3,4,13)           180.0163         -DE/DX =    0.0                 !
 ! D15   D(11,3,4,5)          -180.0008         -DE/DX =    0.0                 !
 ! D16   D(11,3,4,13)            0.0022         -DE/DX =    0.0                 !
 ! D17   D(2,3,11,12)         -179.989          -DE/DX =    0.0                 !
 ! D18   D(4,3,11,12)            0.0252         -DE/DX =    0.0                 !
 ! D19   D(3,4,5,6)             -0.007          -DE/DX =    0.0                 !
 ! D20   D(3,4,5,9)           -180.0115         -DE/DX =    0.0                 !
 ! D21   D(13,4,5,6)          -180.0105         -DE/DX =    0.0                 !
 ! D22   D(13,4,5,9)            -0.015          -DE/DX =    0.0                 !
 ! D23   D(3,4,13,14)         -179.9657         -DE/DX =    0.0                 !
 ! D24   D(5,4,13,14)            0.0376         -DE/DX =    0.0                 !
 ! D25   D(4,5,6,1)             -0.005          -DE/DX =    0.0                 !
 ! D26   D(4,5,6,10)           180.0032         -DE/DX =    0.0                 !
 ! D27   D(9,5,6,1)           -180.0005         -DE/DX =    0.0                 !
 ! D28   D(9,5,6,10)             0.0077         -DE/DX =    0.0                 !
 ! D29   D(4,13,14,15)         179.9716         -DE/DX =    0.0                 !
 ! D30   D(4,13,14,16)         -61.0625         -DE/DX =    0.0                 !
 ! D31   D(4,13,14,17)          60.9865         -DE/DX =    0.0                 !
 --------------------------------------------------------------------------------
 GradGradGradGradGradGradGradGradGradGradGradGradGradGradGradGradGradGrad

                          Input orientation:                          
 ---------------------------------------------------------------------
 Center     Atomic      Atomic             Coordinates (Angstroms)
 Number     Number       Type             X           Y           Z
 ---------------------------------------------------------------------
      1          6           0       -2.683110    1.321356   -0.131858
      2          6           0       -1.284794    1.340960   -0.218051
      3          6           0       -0.592723    2.540320   -0.068542
      4          6           0       -1.309019    3.735114    0.170070
      5          6           0       -2.700706    3.715192    0.255912
      6          6           0       -3.388232    2.500736    0.103809
      7          1           0       -3.216508    0.376056   -0.250443
      8          1           0       -0.708606    0.432370   -0.401618
      9          1           0       -3.257541    4.634017    0.439985
     10          1           0       -4.477690    2.489933    0.171728
     11          8           0        0.766842    2.561578   -0.152130
     12          1           0        1.037966    3.485596   -0.019988
     13          8           0       -0.501406    4.842584    0.297008
     14          6           0       -1.118120    6.097407    0.539688
     15          1           0       -0.304480    6.831707    0.606432
     16          1           0       -1.798091    6.379764   -0.284382
     17          1           0       -1.684736    6.092604    1.488382
 ---------------------------------------------------------------------
                    Distance matrix (angstroms):
                    1          2          3          4          5
     1  C    0.000000
     2  C    1.401106   0.000000
     3  C    2.420661   1.392760   0.000000
     4  C    2.793835   2.425531   1.413346   0.000000
     5  C    2.425103   2.804715   2.434991   1.394474   0.000000
     6  C    1.394157   2.423453   2.801096   2.418927   1.403828
     7  H    1.091865   2.159538   3.406079   3.885694   3.416472
     8  H    2.182140   1.091433   2.137247   3.405208   3.895861
     9  H    3.410381   3.894736   3.426867   2.162780   1.090040
    10  H    2.162927   3.415648   3.892715   3.404549   2.160097
    11  O    3.666160   2.388194   1.362299   2.406283   3.677120
    12  H    4.306142   3.167636   1.885485   2.367852   3.755863
    13  O    4.164469   3.624963   2.332892   1.376532   2.471764
    14  C    5.070585   4.819310   3.646759   2.398643   2.874031
    15  H    6.047059   5.638182   4.353697   3.284570   3.946825
    16  H    5.137510   5.065315   4.029990   2.727616   2.864711
    17  H    5.136802   5.064582   4.029296   2.727062   2.864134
                    6          7          8          9         10
     6  C    0.000000
     7  H    2.160844   0.000000
     8  H    3.422571   2.513085   0.000000
     9  H    2.163558   4.313770   4.985901   0.000000
    10  H    1.091626   2.497456   4.332238   2.481496   0.000000
    11  O    4.163394   4.544585   2.602445   4.565223   5.255011
    12  H    4.536134   5.274742   3.538128   4.470104   5.608080
    13  O    3.722276   5.255602   4.470011   2.767711   4.621850
    14  C    4.275447   6.145031   5.757292   2.593950   4.943276
    15  H    5.340362   7.133693   6.490840   3.684850   6.037851
    16  H    4.210237   6.169081   6.047497   2.387956   4.745426
    17  H    4.209567   6.168368   6.046750   2.387536   4.744830
                   11         12         13         14         15
    11  O    0.000000
    12  H    0.971998   0.000000
    13  O    2.648238   2.076432   0.000000
    14  C    4.066175   3.432710   1.419088   0.000000
    15  H    4.467342   3.659374   2.022655   1.098026   0.000000
    16  H    4.601621   4.060706   2.093401   1.105068   1.796851
    17  H    4.601050   4.060145   2.093369   1.105033   1.797002
                   16         17
    16  H    0.000000
    17  H    1.799444   0.000000
 Stoichiometry    C7H8O2
 Framework group  C1[X(C7H8O2)]
 Deg. of freedom    45
 Full point group                 C1      NOp   1
 Largest Abelian subgroup         C1      NOp   1
 Largest concise Abelian subgroup C1      NOp   1
                         Standard orientation:                         
 ---------------------------------------------------------------------
 Center     Atomic      Atomic             Coordinates (Angstroms)
 Number     Number       Type             X           Y           Z
 ---------------------------------------------------------------------
      1          6           0        2.305319   -0.588949   -0.000041
      2          6           0        1.841623    0.733203    0.000037
      3          6           0        0.473367    0.993311    0.000098
      4          6           0       -0.442367   -0.083247   -0.000078
      5          6           0        0.019509   -1.399009   -0.000034
      6          6           0        1.400751   -1.649812    0.000038
      7          1           0        3.379893   -0.782492   -0.000063
      8          1           0        2.527997    1.581799    0.000073
      9          1           0       -0.682832   -2.232618    0.000020
     10          1           0        1.757742   -2.681415    0.000019
     11          8           0        0.020435    2.278111    0.000037
     12          1           0       -0.950345    2.229474    0.000276
     13          8           0       -1.759383    0.317139   -0.000352
     14          6           0       -2.764360   -0.684776    0.000202
     15          1           0       -3.726152   -0.155043    0.000386
     16          1           0       -2.699277   -1.323130   -0.899489
     17          1           0       -2.698485   -1.322900    0.899955
 ---------------------------------------------------------------------
 Rotational constants (GHZ):           2.6017080           1.5451827           0.9755352

 **********************************************************************

            Population analysis using the SCF density.

 **********************************************************************

 Orbital symmetries:
       Occupied  (A) (A) (A) (A) (A) (A) (A) (A) (A) (A) (A) (A)
                 (A) (A) (A) (A) (A) (A) (A) (A) (A) (A) (A) (A)
                 (A) (A) (A) (A) (A) (A) (A) (A) (A)
       Virtual   (A) (A) (A) (A) (A) (A) (A) (A) (A) (A) (A) (A)
                 (A) (A) (A) (A) (A) (A) (A) (A) (A) (A) (A) (A)
                 (A) (A) (A) (A) (A) (A) (A) (A) (A) (A) (A) (A)
                 (A) (A) (A) (A) (A) (A) (A) (A) (A) (A) (A) (A)
                 (A) (A) (A) (A) (A) (A) (A) (A) (A) (A) (A) (A)
                 (A) (A) (A) (A) (A) (A) (A) (A) (A) (A) (A) (A)
                 (A) (A) (A) (A) (A) (A) (A) (A) (A) (A) (A) (A)
                 (A) (A) (A) (A) (A) (A) (A) (A) (A) (A) (A) (A)
                 (A) (A) (A) (A) (A) (A) (A) (A) (A) (A) (A) (A)
                 (A) (A) (A) (A) (A) (A) (A) (A) (A) (A) (A) (A)
                 (A) (A) (A) (A) (A) (A) (A) (A) (A) (A) (A) (A)
                 (A)
 The electronic state is 1-A.
 Alpha  occ. eigenvalues --  -19.18319 -19.16208 -10.25350 -10.24427 -10.24129
 Alpha  occ. eigenvalues --  -10.19017 -10.18343 -10.18288 -10.18163  -1.08173
 Alpha  occ. eigenvalues --   -1.04766  -0.84587  -0.75651  -0.74125  -0.69949
 Alpha  occ. eigenvalues --   -0.60553  -0.60412  -0.55058  -0.52030  -0.48605
 Alpha  occ. eigenvalues --   -0.47671  -0.45403  -0.44436  -0.42383  -0.40749
 Alpha  occ. eigenvalues --   -0.38837  -0.37846  -0.34641  -0.34402  -0.33861
 Alpha  occ. eigenvalues --   -0.32137  -0.23921  -0.20749
 Alpha virt. eigenvalues --    0.00357   0.01341   0.05571   0.06117   0.08436
 Alpha virt. eigenvalues --    0.10690   0.11803   0.12567   0.12899   0.14730
 Alpha virt. eigenvalues --    0.15558   0.16921   0.21326   0.25043   0.28741
 Alpha virt. eigenvalues --    0.30674   0.31979   0.35311   0.42971   0.43451
 Alpha virt. eigenvalues --    0.43887   0.44913   0.47024   0.47660   0.49764
 Alpha virt. eigenvalues --    0.50929   0.52203   0.52786   0.53558   0.53780
 Alpha virt. eigenvalues --    0.55098   0.55733   0.58087   0.60198   0.61139
 Alpha virt. eigenvalues --    0.61184   0.62638   0.63741   0.64967   0.66310
 Alpha virt. eigenvalues --    0.70180   0.70453   0.73573   0.74704   0.76956
 Alpha virt. eigenvalues --    0.84179   0.86473   0.88344   0.90218   0.91473
 Alpha virt. eigenvalues --    0.92288   0.93284   0.94629   0.97543   0.99876
 Alpha virt. eigenvalues --    1.00746   1.01837   1.04360   1.06861   1.08564
 Alpha virt. eigenvalues --    1.09707   1.11483   1.11780   1.18437   1.21149
 Alpha virt. eigenvalues --    1.22957   1.27310   1.31639   1.36141   1.37406
 Alpha virt. eigenvalues --    1.38223   1.38342   1.47223   1.48947   1.49148
 Alpha virt. eigenvalues --    1.55035   1.57177   1.57194   1.58039   1.58441
 Alpha virt. eigenvalues --    1.60194   1.62626   1.63427   1.64439   1.65889
 Alpha virt. eigenvalues --    1.65950   1.69278   1.70855   1.72328   1.75875
 Alpha virt. eigenvalues --    1.76452   1.77292   1.81061   1.81731   1.83784
 Alpha virt. eigenvalues --    1.85193   1.88462   1.89192   1.93680   1.97798
 Alpha virt. eigenvalues --    2.01092   2.03670   2.04546   2.08089   2.10806
 Alpha virt. eigenvalues --    2.16278   2.16713   2.17987   2.18645   2.23157
 Alpha virt. eigenvalues --    2.29484   2.33745   2.37059   2.39201   2.42710
 Alpha virt. eigenvalues --    2.43340   2.47533   2.53791   2.61437   2.72333
 Alpha virt. eigenvalues --    2.74594   2.81892   2.82174   2.89745   2.95657
 Alpha virt. eigenvalues --    3.01624   3.02555   3.18630   3.22457   3.30608
 Alpha virt. eigenvalues --    3.41332   3.64023   3.77863
          Condensed to atoms (all electrons):
               1          2          3          4          5          6
     1  C    4.717739   0.501714   0.008475  -0.080428   0.007939   0.505653
     2  C    0.501714   4.756104   0.517952  -0.025006  -0.073835   0.005800
     3  C    0.008475   0.517952   4.884199   0.252068   0.004897  -0.069707
     4  C   -0.080428  -0.025006   0.252068   5.175988   0.350740   0.025317
     5  C    0.007939  -0.073835   0.004897   0.350740   4.962992   0.460191
     6  C    0.505653   0.005800  -0.069707   0.025317   0.460191   4.737372
     7  H    0.389962  -0.051852   0.012268  -0.001223   0.012066  -0.054121
     8  H   -0.056473   0.361435  -0.029890   0.017952  -0.001608   0.010404
     9  H    0.009187   0.000285   0.007404  -0.044700   0.372238  -0.037090
    10  H   -0.051818   0.010336  -0.000352   0.010708  -0.044802   0.384158
    11  O    0.002891  -0.052668   0.481973  -0.088730   0.005101  -0.000069
    12  H   -0.000019   0.006416  -0.033583  -0.033917   0.002784  -0.000373
    13  O    0.000240   0.002145  -0.054828   0.386852  -0.063509   0.003574
    14  C   -0.000014  -0.000103   0.005968  -0.072481  -0.003496   0.000900
    15  H    0.000000   0.000019  -0.000290   0.004276  -0.000218  -0.000030
    16  H   -0.000023  -0.000035  -0.000074  -0.005363   0.008504   0.000039
    17  H   -0.000023  -0.000035  -0.000071  -0.005355   0.008509   0.000039
               7          8          9         10         11         12
     1  C    0.389962  -0.056473   0.009187  -0.051818   0.002891  -0.000019
     2  C   -0.051852   0.361435   0.000285   0.010336  -0.052668   0.006416
     3  C    0.012268  -0.029890   0.007404  -0.000352   0.481973  -0.033583
     4  C   -0.001223   0.017952  -0.044700   0.010708  -0.088730  -0.033917
     5  C    0.012066  -0.001608   0.372238  -0.044802   0.005101   0.002784
     6  C   -0.054121   0.010404  -0.037090   0.384158  -0.000069  -0.000373
     7  H    0.759570  -0.016605  -0.000315  -0.015899  -0.000068   0.000025
     8  H   -0.016605   0.741760   0.000049  -0.000250   0.001749  -0.000964
     9  H   -0.000315   0.000049   0.737726  -0.015723  -0.000071   0.000009
    10  H   -0.015899  -0.000250  -0.015723   0.759859   0.000003   0.000001
    11  O   -0.000068   0.001749  -0.000071   0.000003   7.475393   0.354123
    12  H    0.000025  -0.000964   0.000009   0.000001   0.354123   0.529984
    13  O    0.000004  -0.000102  -0.007411  -0.000075  -0.004453   0.032520
    14  C   -0.000001   0.000014   0.007336  -0.000017  -0.000066  -0.002179
    15  H   -0.000000  -0.000000  -0.000422  -0.000000   0.000015  -0.000459
    16  H    0.000000   0.000000   0.002006   0.000022  -0.000037   0.000305
    17  H    0.000000   0.000000   0.002008   0.000022  -0.000037   0.000305
              13         14         15         16         17
     1  C    0.000240  -0.000014   0.000000  -0.000023  -0.000023
     2  C    0.002145  -0.000103   0.000019  -0.000035  -0.000035
     3  C   -0.054828   0.005968  -0.000290  -0.000074  -0.000071
     4  C    0.386852  -0.072481   0.004276  -0.005363  -0.005355
     5  C   -0.063509  -0.003496  -0.000218   0.008504   0.008509
     6  C    0.003574   0.000900  -0.000030   0.000039   0.000039
     7  H    0.000004  -0.000001  -0.000000   0.000000   0.000000
     8  H   -0.000102   0.000014  -0.000000   0.000000   0.000000
     9  H   -0.007411   0.007336  -0.000422   0.002006   0.002008
    10  H   -0.000075  -0.000017  -0.000000   0.000022   0.000022
    11  O   -0.004453  -0.000066   0.000015  -0.000037  -0.000037
    12  H    0.032520  -0.002179  -0.000459   0.000305   0.000305
    13  O    7.758430   0.349600  -0.019117  -0.030266  -0.030271
    14  C    0.349600   4.416935   0.394251   0.387849   0.387833
    15  H   -0.019117   0.394251   0.641389  -0.028184  -0.028158
    16  H   -0.030266   0.387849  -0.028184   0.681570  -0.049344
    17  H   -0.030271   0.387833  -0.028158  -0.049344   0.681538
 Mulliken charges:
               1
     1  C    0.044996
     2  C    0.041327
     3  C    0.013591
     4  C    0.133300
     5  C   -0.008493
     6  C    0.027941
     7  H   -0.033810
     8  H   -0.027472
     9  H   -0.032516
    10  H   -0.036175
    11  O   -0.175048
    12  H    0.145023
    13  O   -0.323333
    14  C    0.127672
    15  H    0.036929
    16  H    0.033030
    17  H    0.033039
 Sum of Mulliken charges =  -0.00000
 Mulliken charges with hydrogens summed into heavy atoms:
               1
     1  C    0.011185
     2  C    0.013855
     3  C    0.013591
     4  C    0.133300
     5  C   -0.041010
     6  C   -0.008233
    11  O   -0.030026
    13  O   -0.323333
    14  C    0.230671
 Electronic spatial extent (au):  <R**2>=           1175.6093
 Charge=             -0.0000 electrons
 Dipole moment (field-independent basis, Debye):
    X=             -2.2355    Y=             -1.4230    Z=              0.0010  Tot=              2.6500
 Quadrupole moment (field-independent basis, Debye-Ang):
   XX=            -43.5823   YY=            -51.8943   ZZ=            -55.5796
   XY=              0.2692   XZ=             -0.0019   YZ=              0.0010
 Traceless Quadrupole moment (field-independent basis, Debye-Ang):
   XX=              6.7698   YY=             -1.5422   ZZ=             -5.2275
   XY=              0.2692   XZ=             -0.0019   YZ=              0.0010
 Octapole moment (field-independent basis, Debye-Ang**2):
  XXX=            -22.4513  YYY=              0.6907  ZZZ=             -0.0010  XYY=            -10.1468
  XXY=              1.8403  XXZ=              0.0018  XZZ=             -8.3331  YZZ=              5.3717
  YYZ=              0.0021  XYZ=             -0.0014
 Hexadecapole moment (field-independent basis, Debye-Ang**3):
 XXXX=           -838.0305 YYYY=           -537.3418 ZZZZ=            -63.3802 XXXY=              7.3393
 XXXZ=             -0.0025 YYYX=            -21.4252 YYYZ=              0.0035 ZZZX=              0.0017
 ZZZY=             -0.0003 XXYY=           -223.7265 XXZZ=           -176.1264 YYZZ=           -104.9954
 XXYZ=              0.0036 YYXZ=             -0.0025 ZZXY=              2.2621
 N-N= 4.325586609502D+02 E-N=-1.849527671726D+03  KE= 4.192427649247D+02
 1\1\GINC-LISZT\FOpt\RB3LYP\CC-pVDZ\C7H8O2\JSTEFFEN\03-Sep-2021\0\\# B3
 LYP empiricaldispersion=gd3 cc-pVDZ geom=connectivity opt\\Title Card 
 Required\\0,1\C,-2.6831097763,1.3213562965,-0.1318582672\C,-1.28479447
 42,1.3409595419,-0.2180512702\C,-0.5927233902,2.5403202326,-0.06854195
 22\C,-1.3090188906,3.7351140785,0.17007007\C,-2.7007055633,3.715192018
 ,0.255911827\C,-3.3882320197,2.5007358835,0.1038085217\H,-3.2165076652
 ,0.3760557329,-0.2504426881\H,-0.7086056796,0.4323698684,-0.4016183246
 \H,-3.257541112,4.634016852,0.4399852466\H,-4.4776899232,2.4899329877,
 0.1717275605\O,0.7668424053,2.5615782149,-0.1521299488\H,1.0379664535,
 3.4855963939,-0.019987734\O,-0.5014060661,4.8425837966,0.2970075224\C,
 -1.118119638,6.0974073868,0.5396875177\H,-0.3044801282,6.8317070708,0.
 6064320298\H,-1.7980910017,6.3797635636,-0.2843815376\H,-1.6847359806,
 6.0926039815,1.488381657\\Version=ES64L-G16RevA.03\State=1-A\HF=-422.0
 301026\RMSD=3.980e-09\RMSF=4.114e-05\Dipole=-0.2408023,0.9988191,0.177
 1266\Quadrupole=-0.6217533,4.3170997,-3.6953464,1.7601611,0.0766217,1.
 2135264\PG=C01 [X(C7H8O2)]\\@


 A COMPLEXITY IS MERELY A DISARRANGEMENT OF SIMPLICITIES.

                                    -- G. O. ABELL IN "EXPLORATION OF THE UNIVERSE"
 Job cpu time:       0 days  0 hours 20 minutes 57.5 seconds.
 Elapsed time:       0 days  0 hours 21 minutes  5.5 seconds.
 File lengths (MBytes):  RWF=     19 Int=      0 D2E=      0 Chk=      3 Scr=      1
 Normal termination of Gaussian 16 at Fri Sep  3 14:17:08 2021.
