 Entering Gaussian System, Link 0=g16
 Input=cyclopropane.gjf
 Output=cyclopropane.log
 Initial command:
 /home/julien/Software/g16/l1.exe "/home/julien/Software/Caracal/examples/qmdffgen/cyclopropane_coordinates/Gau-17418.inp" -scrdir="/home/julien/Software/Caracal/examples/qmdffgen/cyclopropane_coordinates/"
 Entering Link 1 = /home/julien/Software/g16/l1.exe PID=     17419.

 Cite this work as:
 Gaussian 16, Revision A.03,
 M. J. Frisch, G. W. Trucks, H. B. Schlegel, G. E. Scuseria, 
 M. A. Robb, J. R. Cheeseman, G. Scalmani, V. Barone, 
 G. A. Petersson, H. Nakatsuji, X. Li, M. Caricato, A. V. Marenich, 
 J. Bloino, B. G. Janesko, R. Gomperts, B. Mennucci, H. P. Hratchian, 
 J. V. Ortiz, A. F. Izmaylov, J. L. Sonnenberg, D. Williams-Young, 
 F. Ding, F. Lipparini, F. Egidi, J. Goings, B. Peng, A. Petrone, 
 T. Henderson, D. Ranasinghe, V. G. Zakrzewski, J. Gao, N. Rega, 
 G. Zheng, W. Liang, M. Hada, M. Ehara, K. Toyota, R. Fukuda, 
 J. Hasegawa, M. Ishida, T. Nakajima, Y. Honda, O. Kitao, H. Nakai, 
 T. Vreven, K. Throssell, J. A. Montgomery, Jr., J. E. Peralta, 
 F. Ogliaro, M. J. Bearpark, J. J. Heyd, E. N. Brothers, K. N. Kudin, 
 V. N. Staroverov, T. A. Keith, R. Kobayashi, J. Normand, 
 K. Raghavachari, A. P. Rendell, J. C. Burant, S. S. Iyengar, 
 J. Tomasi, M. Cossi, J. M. Millam, M. Klene, C. Adamo, R. Cammi, 
 J. W. Ochterski, R. L. Martin, K. Morokuma, O. Farkas, 
 J. B. Foresman, and D. J. Fox, Gaussian, Inc., Wallingford CT, 2016.
 
 ******************************************
 Gaussian 16:  ES64L-G16RevA.03 25-Dec-2016
                 2-Sep-2023 
 ******************************************
 %chk=cyclopropane.chk
 -------------------------------------------
 # opt b3lyp def2svp empiricaldispersion=gd3
 -------------------------------------------
 1/11=1,18=20,19=15,26=3,38=1/1,3;
 2/9=110,12=2,17=6,18=5,40=1/2;
 3/5=43,7=101,11=2,25=1,30=1,71=1,74=-5,124=31/1,2,3;
 4//1;
 5/5=2,38=5/2;
 6/7=2,8=2,9=2,10=2,28=1/1;
 7//1,2,3,16;
 1/11=1,18=20,19=15,26=3/3(2);
 2/9=110/2;
 99//99;
 2/9=110/2;
 3/5=43,7=101,11=2,25=1,30=1,71=1,74=-5,124=31/1,2,3;
 4/5=5,16=3,69=1/1;
 5/5=2,38=5/2;
 7//1,2,3,16;
 1/11=1,18=20,19=15,26=3/3(-5);
 2/9=110/2;
 6/7=2,8=2,9=2,10=2,19=2,28=1/1;
 99/9=1/99;
 -------------------
 Title Card Required
 -------------------
 Symbolic Z-matrix:
 Charge =  0 Multiplicity = 1
 C                    -0.20024   0.54033   0.74585 
 H                     0.15643   1.04473   1.6195 
 H                     0.15643   1.04473  -0.1278 
 H                    -1.27024   0.54034   0.74585 
 C                     0.46731  -0.58727   0.30673 
 H                     0.11064  -1.09167  -0.56692 
 H                     1.53731  -0.58728   0.30673 
 C                    -0.20156  -0.77221   1.50578 
 H                     0.15493  -1.78108   1.50569 
 H                     0.15527  -0.26792   2.37943 
 H                    -1.27156  -0.77202   1.50589 
 

 GradGradGradGradGradGradGradGradGradGradGradGradGradGradGradGradGradGrad
 Berny optimization.
 Initialization pass.
                           ----------------------------
                           !    Initial Parameters    !
                           ! (Angstroms and Degrees)  !
 --------------------------                            --------------------------
 ! Name  Definition              Value          Derivative Info.                !
 --------------------------------------------------------------------------------
 ! R1    R(1,2)                  1.07           estimate D2E/DX2                !
 ! R2    R(1,3)                  1.07           estimate D2E/DX2                !
 ! R3    R(1,4)                  1.07           estimate D2E/DX2                !
 ! R4    R(1,5)                  1.382          estimate D2E/DX2                !
 ! R5    R(1,8)                  1.5167         estimate D2E/DX2                !
 ! R6    R(5,6)                  1.07           estimate D2E/DX2                !
 ! R7    R(5,7)                  1.07           estimate D2E/DX2                !
 ! R8    R(5,8)                  1.3854         estimate D2E/DX2                !
 ! R9    R(8,9)                  1.07           estimate D2E/DX2                !
 ! R10   R(8,10)                 1.07           estimate D2E/DX2                !
 ! R11   R(8,11)                 1.07           estimate D2E/DX2                !
 ! A1    A(2,1,3)              109.4713         estimate D2E/DX2                !
 ! A2    A(2,1,4)              109.4712         estimate D2E/DX2                !
 ! A3    A(2,1,5)              118.8844         estimate D2E/DX2                !
 ! A4    A(2,1,8)               89.9504         estimate D2E/DX2                !
 ! A5    A(3,1,4)              109.4712         estimate D2E/DX2                !
 ! A6    A(3,1,5)               87.9468         estimate D2E/DX2                !
 ! A7    A(3,1,8)              144.8213         estimate D2E/DX2                !
 ! A8    A(4,1,5)              118.8844         estimate D2E/DX2                !
 ! A9    A(4,1,8)               89.9506         estimate D2E/DX2                !
 ! A10   A(1,5,6)              118.8844         estimate D2E/DX2                !
 ! A11   A(1,5,7)              118.8844         estimate D2E/DX2                !
 ! A12   A(6,5,7)              109.4713         estimate D2E/DX2                !
 ! A13   A(6,5,8)              118.8687         estimate D2E/DX2                !
 ! A14   A(7,5,8)              118.8687         estimate D2E/DX2                !
 ! A15   A(1,8,9)              144.6498         estimate D2E/DX2                !
 ! A16   A(1,8,10)              90.0548         estimate D2E/DX2                !
 ! A17   A(1,8,11)              90.0442         estimate D2E/DX2                !
 ! A18   A(5,8,9)               87.9902         estimate D2E/DX2                !
 ! A19   A(5,8,10)             118.8649         estimate D2E/DX2                !
 ! A20   A(5,8,11)             118.8726         estimate D2E/DX2                !
 ! A21   A(9,8,10)             109.4713         estimate D2E/DX2                !
 ! A22   A(9,8,11)             109.4712         estimate D2E/DX2                !
 ! A23   A(10,8,11)            109.4712         estimate D2E/DX2                !
 ! D1    D(2,1,5,6)            179.9998         estimate D2E/DX2                !
 ! D2    D(2,1,5,7)            -42.3431         estimate D2E/DX2                !
 ! D3    D(3,1,5,6)            -68.8287         estimate D2E/DX2                !
 ! D4    D(3,1,5,7)             68.8284         estimate D2E/DX2                !
 ! D5    D(4,1,5,6)             42.3428         estimate D2E/DX2                !
 ! D6    D(4,1,5,7)            179.9999         estimate D2E/DX2                !
 ! D7    D(2,1,8,9)           -125.2828         estimate D2E/DX2                !
 ! D8    D(2,1,8,10)            -0.0093         estimate D2E/DX2                !
 ! D9    D(2,1,8,11)           109.462          estimate D2E/DX2                !
 ! D10   D(3,1,8,9)             -0.0185         estimate D2E/DX2                !
 ! D11   D(3,1,8,10)           125.255          estimate D2E/DX2                !
 ! D12   D(3,1,8,11)          -125.2738         estimate D2E/DX2                !
 ! D13   D(4,1,8,9)            125.2459         estimate D2E/DX2                !
 ! D14   D(4,1,8,10)          -109.4806         estimate D2E/DX2                !
 ! D15   D(4,1,8,11)            -0.0093         estimate D2E/DX2                !
 ! D16   D(6,5,8,9)             68.7956         estimate D2E/DX2                !
 ! D17   D(6,5,8,10)           179.9888         estimate D2E/DX2                !
 ! D18   D(6,5,8,11)           -42.3988         estimate D2E/DX2                !
 ! D19   D(7,5,8,9)            -68.8168         estimate D2E/DX2                !
 ! D20   D(7,5,8,10)            42.3763         estimate D2E/DX2                !
 ! D21   D(7,5,8,11)           179.9887         estimate D2E/DX2                !
 --------------------------------------------------------------------------------
 Trust Radius=3.00D-01 FncErr=1.00D-07 GrdErr=1.00D-06 EigMax=2.50D+02 EigMin=1.00D-04
 Number of steps in this run=     65 maximum allowed number of steps=    100.
 GradGradGradGradGradGradGradGradGradGradGradGradGradGradGradGradGradGrad

                          Input orientation:                          
 ---------------------------------------------------------------------
 Center     Atomic      Atomic             Coordinates (Angstroms)
 Number     Number       Type             X           Y           Z
 ---------------------------------------------------------------------
      1          6           0       -0.200238    0.540328    0.745850
      2          1           0        0.156435    1.044726    1.619502
      3          1           0        0.156435    1.044726   -0.127802
      4          1           0       -1.270238    0.540341    0.745850
      5          6           0        0.467314   -0.587267    0.306730
      6          1           0        0.110639   -1.091666   -0.566921
      7          1           0        1.537314   -0.587280    0.306727
      8          6           0       -0.201562   -0.772209    1.505785
      9          1           0        0.154931   -1.781076    1.505685
     10          1           0        0.155274   -0.267924    2.379435
     11          1           0       -1.271562   -0.772025    1.505887
 ---------------------------------------------------------------------
                    Distance matrix (angstroms):
                    1          2          3          4          5
     1  C    0.000000
     2  H    1.070000   0.000000
     3  H    1.070000   1.747303   0.000000
     4  H    1.070000   1.747303   1.747303   0.000000
     5  C    1.382000   2.117409   1.717226   2.117408   0.000000
     6  H    2.117408   3.057239   2.181535   2.508712   1.070000
     7  H    2.117408   2.508715   2.181533   3.057239   1.070000
     8  C    1.516660   1.855357   2.469417   1.855359   1.385400
     9  H    2.468281   2.828094   3.263961   2.827974   1.720540
    10  H    1.856949   1.516757   2.830068   2.313866   2.120249
    11  H    1.856788   2.313584   2.829964   1.516563   2.120331
                    6          7          8          9         10
     6  H    0.000000
     7  H    1.747303   0.000000
     8  C    2.120290   2.120290   0.000000
     9  H    2.184707   2.184865   1.070000   0.000000
    10  H    3.059666   2.511601   1.070000   1.747303   0.000000
    11  H    2.511808   3.059723   1.070000   1.747303   1.747303
                   11
    11  H    0.000000
 Stoichiometry    C3H8
 Framework group  C1[X(C3H8)]
 Deg. of freedom    27
 Full point group                 C1      NOp   1
 Largest Abelian subgroup         C1      NOp   1
 Largest concise Abelian subgroup C1      NOp   1
                         Standard orientation:                         
 ---------------------------------------------------------------------
 Center     Atomic      Atomic             Coordinates (Angstroms)
 Number     Number       Type             X           Y           Z
 ---------------------------------------------------------------------
      1          6           0       -0.749409   -0.372593    0.000000
      2          1           0       -0.734978   -0.990190    0.873650
      3          1           0       -1.637251    0.224598    0.000002
      4          1           0       -0.734981   -0.990187   -0.873653
      5          6           0       -0.019664    0.801032    0.000000
      6          1           0       -0.034093    1.418629   -0.873652
      7          1           0       -0.034093    1.418629    0.873652
      8          6           0        0.766888   -0.339436    0.000000
      9          1           0        1.625871    0.298566   -0.000198
     10          1           0        0.781413   -0.956890    0.873750
     11          1           0        0.781222   -0.957175   -0.873552
 ---------------------------------------------------------------------
 Rotational constants (GHZ):          21.6187227          19.3599551          12.5558787
 Standard basis: def2SVP (5D, 7F)
 There are    85 symmetry adapted cartesian basis functions of A   symmetry.
 There are    82 symmetry adapted basis functions of A   symmetry.
    82 basis functions,   131 primitive gaussians,    85 cartesian basis functions
    13 alpha electrons       13 beta electrons
       nuclear repulsion energy        95.6221547744 Hartrees.
 NAtoms=   11 NActive=   11 NUniq=   11 SFac= 1.00D+00 NAtFMM=   60 NAOKFM=F Big=F
 Integral buffers will be    131072 words long.
 Raffenetti 2 integral format.
 Two-electron integral symmetry is turned on.
 Nuclear repulsion after empirical dispersion term =       95.6188043596 Hartrees.
 One-electron integrals computed using PRISM.
   1 Symmetry operations used in ECPInt.
 ECPInt:  NShTT=     903 NPrTT=    2989 LenC2=     904 LenP2D=    2802.
 LDataN:  DoStor=T MaxTD1= 4 Len=   56
 NBasis=    82 RedAO= T EigKep=  1.25D-03  NBF=    82
 NBsUse=    82 1.00D-06 EigRej= -1.00D+00 NBFU=    82
 ExpMin= 1.22D-01 ExpMax= 1.24D+03 ExpMxC= 1.86D+02 IAcc=3 IRadAn=         5 AccDes= 0.00D+00
 Harris functional with IExCor=  402 and IRadAn=       5 diagonalized for initial guess.
 HarFok:  IExCor=  402 AccDes= 0.00D+00 IRadAn=         5 IDoV= 1 UseB2=F ITyADJ=14
 ICtDFT=  3500011 ScaDFX=  1.000000  1.000000  1.000000  1.000000
 FoFCou: FMM=F IPFlag=           0 FMFlag=      100000 FMFlg1=           0
         NFxFlg=           0 DoJE=T BraDBF=F KetDBF=T FulRan=T
         wScrn=  0.000000 ICntrl=       500 IOpCl=  0 I1Cent=   200000004 NGrid=           0
         NMat0=    1 NMatS0=      1 NMatT0=    0 NMatD0=    1 NMtDS0=    0 NMtDT0=    0
 Petite list used in FoFCou.
 Keep R1 ints in memory in canonical form, NReq=6701822.
 Requested convergence on RMS density matrix=1.00D-08 within 128 cycles.
 Requested convergence on MAX density matrix=1.00D-06.
 Requested convergence on             energy=1.00D-06.
 No special actions if energy rises.
 Integral accuracy reduced to 1.0D-05 until final iterations.
 Initial convergence to 1.0D-05 achieved.  Increase integral accuracy.
 SCF Done:  E(RB3LYP) =  -118.707369604     A.U. after   12 cycles
            NFock= 12  Conv=0.51D-08     -V/T= 1.9982

 **********************************************************************

            Population analysis using the SCF density.

 **********************************************************************

 Orbital symmetries:
       Occupied  (A) (A) (A) (A) (A) (A) (A) (A) (A) (A) (A) (A)
                 (A)
       Virtual   (A) (A) (A) (A) (A) (A) (A) (A) (A) (A) (A) (A)
                 (A) (A) (A) (A) (A) (A) (A) (A) (A) (A) (A) (A)
                 (A) (A) (A) (A) (A) (A) (A) (A) (A) (A) (A) (A)
                 (A) (A) (A) (A) (A) (A) (A) (A) (A) (A) (A) (A)
                 (A) (A) (A) (A) (A) (A) (A) (A) (A) (A) (A) (A)
                 (A) (A) (A) (A) (A) (A) (A) (A) (A)
 The electronic state is 1-A.
 Alpha  occ. eigenvalues --  -10.17883 -10.17845 -10.14531  -0.93244  -0.64211
 Alpha  occ. eigenvalues --   -0.64128  -0.54812  -0.48790  -0.43553  -0.39957
 Alpha  occ. eigenvalues --   -0.37348  -0.33310  -0.12429
 Alpha virt. eigenvalues --    0.02923   0.05926   0.07581   0.11270   0.14173
 Alpha virt. eigenvalues --    0.16980   0.20208   0.21390   0.26624   0.30434
 Alpha virt. eigenvalues --    0.35641   0.39430   0.43363   0.47771   0.48412
 Alpha virt. eigenvalues --    0.51227   0.64134   0.64335   0.64714   0.67991
 Alpha virt. eigenvalues --    0.69636   0.70612   0.71175   0.71782   0.72367
 Alpha virt. eigenvalues --    0.79982   0.80568   0.82206   0.96847   1.01244
 Alpha virt. eigenvalues --    1.11314   1.27405   1.37534   1.45547   1.51352
 Alpha virt. eigenvalues --    1.52772   1.60849   1.70146   1.71080   1.73416
 Alpha virt. eigenvalues --    1.75835   1.75989   1.77005   1.82881   1.87763
 Alpha virt. eigenvalues --    1.94324   1.99116   2.01168   2.01302   2.14701
 Alpha virt. eigenvalues --    2.20799   2.20884   2.26451   2.30000   2.34380
 Alpha virt. eigenvalues --    2.39607   2.51983   2.56652   2.60612   2.79049
 Alpha virt. eigenvalues --    2.82454   2.86551   2.86859   2.92708   2.94441
 Alpha virt. eigenvalues --    3.01947   3.10055   3.24970   3.47049
          Condensed to atoms (all electrons):
               1          2          3          4          5          6
     1  C    5.091363   0.485764   0.110983   0.485817   0.403183   0.002567
     2  H    0.485764   0.743516  -0.060343  -0.018259   0.007440   0.007212
     3  H    0.110983  -0.060343   1.162224  -0.060350  -0.212508  -0.007809
     4  H    0.485817  -0.018259  -0.060350   0.743544   0.007439  -0.013284
     5  C    0.403183   0.007440  -0.212508   0.007439   4.999064   0.376878
     6  H    0.002567   0.007212  -0.007809  -0.013284   0.376878   0.674210
     7  H    0.002591  -0.013283  -0.007823   0.007212   0.376859  -0.042709
     8  C   -0.728487  -0.102925   0.181070  -0.102977   0.404393   0.002288
     9  H    0.180244   0.017929  -0.035364   0.017929  -0.211361  -0.007436
    10  H   -0.101873  -0.058251   0.017731  -0.011142   0.007345   0.007088
    11  H   -0.102008  -0.011164   0.017756  -0.058286   0.007338  -0.013132
               7          8          9         10         11
     1  C    0.002591  -0.728487   0.180244  -0.101873  -0.102008
     2  H   -0.013283  -0.102925   0.017929  -0.058251  -0.011164
     3  H   -0.007823   0.181070  -0.035364   0.017731   0.017756
     4  H    0.007212  -0.102977   0.017929  -0.011142  -0.058286
     5  C    0.376859   0.404393  -0.211361   0.007345   0.007338
     6  H   -0.042709   0.002288  -0.007436   0.007088  -0.013132
     7  H    0.674208   0.002287  -0.007418  -0.013140   0.007088
     8  C    0.002287   5.095373   0.111064   0.485198   0.485353
     9  H   -0.007418   0.111064   1.157877  -0.059649  -0.059721
    10  H   -0.013140   0.485198  -0.059649   0.742262  -0.018331
    11  H    0.007088   0.485353  -0.059721  -0.018331   0.742336
 Mulliken charges:
               1
     1  C    0.169856
     2  H    0.002365
     3  H   -0.105567
     4  H    0.002358
     5  C   -0.166070
     6  H    0.014126
     7  H    0.014129
     8  C    0.167362
     9  H   -0.104094
    10  H    0.002763
    11  H    0.002772
 Sum of Mulliken charges =  -0.00000
 Mulliken charges with hydrogens summed into heavy atoms:
               1
     1  C    0.069012
     5  C   -0.137815
     8  C    0.068803
 Electronic spatial extent (au):  <R**2>=            166.0500
 Charge=             -0.0000 electrons
 Dipole moment (field-independent basis, Debye):
    X=              0.0171    Y=             -0.4137    Z=              0.0001  Tot=              0.4140
 Quadrupole moment (field-independent basis, Debye-Ang):
   XX=            -27.9474   YY=            -19.6788   ZZ=            -19.9031
   XY=             -0.1971   XZ=              0.0002   YZ=              0.0000
 Traceless Quadrupole moment (field-independent basis, Debye-Ang):
   XX=             -5.4376   YY=              2.8310   ZZ=              2.6067
   XY=             -0.1971   XZ=              0.0002   YZ=              0.0000
 Octapole moment (field-independent basis, Debye-Ang**2):
  XXX=             -0.0046  YYY=             -0.6438  ZZZ=              0.0005  XYY=              0.0477
  XXY=              0.7173  XXZ=              0.0006  XZZ=              0.0208  YZZ=             -0.7843
  YYZ=             -0.0001  XYZ=             -0.0001
 Hexadecapole moment (field-independent basis, Debye-Ang**3):
 XXXX=           -133.8663 YYYY=            -80.1717 ZZZZ=            -38.6747 XXXY=             -0.8034
 XXXZ=              0.0014 YYYX=             -0.3064 YYYZ=              0.0005 ZZZX=              0.0005
 ZZZY=             -0.0001 XXYY=            -31.9128 XXZZ=            -25.5619 YYZZ=            -17.7613
 XXYZ=             -0.0002 YYXZ=              0.0001 ZZXY=             -0.1650
 N-N= 9.561880435965D+01 E-N=-4.653660776300D+02  KE= 1.189220494400D+02
   1 Symmetry operations used in ECPInt.
 ECPInt:  NShTT=     903 NPrTT=    2989 LenC2=     904 LenP2D=    2802.
 LDataN:  DoStor=T MaxTD1= 5 Len=  102
 Calling FoFJK, ICntrl=      2127 FMM=F ISym2X=0 I1Cent= 0 IOpClX= 0 NMat=1 NMatS=1 NMatT=0.
 ***** Axes restored to original set *****
 -------------------------------------------------------------------
 Center     Atomic                   Forces (Hartrees/Bohr)
 Number     Number              X              Y              Z
 -------------------------------------------------------------------
      1        6          -0.005745391    0.288244762   -0.157043521
      2        1           0.006991845    0.032074884   -0.010088251
      3        1          -0.016229665    0.093756094   -0.027614089
      4        1          -0.009208142    0.026357564   -0.020028107
      5        6           0.043295093   -0.032930552   -0.051689035
      6        1          -0.012729105   -0.006504051   -0.011165603
      7        1           0.016424636    0.003806590    0.006687815
      8        6          -0.004525793   -0.279366963    0.168697930
      9        1          -0.016080260   -0.070391203    0.066878409
     10        1           0.006970830   -0.024667185    0.022616342
     11        1          -0.009164049   -0.030379939    0.012748109
 -------------------------------------------------------------------
 Cartesian Forces:  Max     0.288244762 RMS     0.086128019

 GradGradGradGradGradGradGradGradGradGradGradGradGradGradGradGradGradGrad
 Berny optimization.
 FormGI is forming the generalized inverse of G from B-inverse, IUseBI=4.
 Internal  Forces:  Max     0.378536963 RMS     0.061748287
 Search for a local minimum.
 Step number   1 out of a maximum of   65
 All quantities printed in internal units (Hartrees-Bohrs-Radians)
 Mixed Optimization -- RFO/linear search
 Second derivative matrix not updated -- first step.
 ITU=  0
     Eigenvalues ---    0.01094   0.02407   0.03942   0.04240   0.04366
     Eigenvalues ---    0.04656   0.06546   0.06571   0.08955   0.11321
     Eigenvalues ---    0.11346   0.13762   0.13857   0.16000   0.16000
     Eigenvalues ---    0.16000   0.26939   0.37230   0.37230   0.37230
     Eigenvalues ---    0.37230   0.37230   0.37230   0.37230   0.37230
     Eigenvalues ---    0.40150   0.45305
 RFO step:  Lambda=-3.37935782D-01 EMin= 1.09449287D-02
 Linear search not attempted -- first point.
 Maximum step size (   0.300) exceeded in Quadratic search.
    -- Step size scaled by   0.410
 Iteration  1 RMS(Cart)=  0.05585118 RMS(Int)=  0.00604034
 Iteration  2 RMS(Cart)=  0.00911711 RMS(Int)=  0.00035628
 Iteration  3 RMS(Cart)=  0.00002276 RMS(Int)=  0.00035540
 Iteration  4 RMS(Cart)=  0.00000001 RMS(Int)=  0.00035540
 Variable       Old X    -DE/DX   Delta X   Delta X   Delta X     New X
                                 (Linear)    (Quad)   (Total)
    R1        2.02201   0.00921   0.00000   0.00532   0.00532   2.02732
    R2        2.02201   0.06133   0.00000   0.03540   0.03540   2.05740
    R3        2.02201   0.00921   0.00000   0.00531   0.00531   2.02732
    R4        2.61160   0.09535   0.00000   0.04407   0.04383   2.65543
    R5        2.86607   0.37854   0.00000   0.24863   0.24908   3.11515
    R6        2.02201   0.01643   0.00000   0.00948   0.00948   2.03149
    R7        2.02201   0.01642   0.00000   0.00948   0.00948   2.03149
    R8        2.61803   0.09208   0.00000   0.04247   0.04218   2.66021
    R9        2.02201   0.06101   0.00000   0.03521   0.03521   2.05721
   R10        2.02201   0.00917   0.00000   0.00529   0.00529   2.02730
   R11        2.02201   0.00916   0.00000   0.00529   0.00529   2.02729
    A1        1.91063  -0.04226   0.00000  -0.03419  -0.03462   1.87601
    A2        1.91063  -0.00333   0.00000  -0.00367  -0.00415   1.90648
    A3        2.07492   0.00002   0.00000   0.00115   0.00127   2.07619
    A4        1.56993   0.03510   0.00000   0.02650   0.02651   1.59644
    A5        1.91063  -0.04226   0.00000  -0.03420  -0.03463   1.87600
    A6        1.53496   0.08970   0.00000   0.07100   0.07082   1.60578
    A7        2.52761   0.02537   0.00000   0.02432   0.02405   2.55166
    A8        2.07492   0.00003   0.00000   0.00116   0.00127   2.07619
    A9        1.56993   0.03512   0.00000   0.02651   0.02652   1.59645
   A10        2.07492  -0.03753   0.00000  -0.02525  -0.02497   2.04995
   A11        2.07492  -0.03754   0.00000  -0.02526  -0.02498   2.04994
   A12        1.91063   0.03791   0.00000   0.02222   0.02091   1.93155
   A13        2.07465  -0.03759   0.00000  -0.02531  -0.02504   2.04961
   A14        2.07465  -0.03760   0.00000  -0.02532  -0.02505   2.04960
   A15        2.52462   0.02627   0.00000   0.02465   0.02433   2.54895
   A16        1.57175   0.03415   0.00000   0.02601   0.02606   1.59781
   A17        1.57157   0.03417   0.00000   0.02603   0.02608   1.59764
   A18        1.53572   0.08804   0.00000   0.06996   0.06983   1.60555
   A19        2.07458   0.00040   0.00000   0.00136   0.00145   2.07603
   A20        2.07472   0.00040   0.00000   0.00136   0.00145   2.07616
   A21        1.91063  -0.04185   0.00000  -0.03393  -0.03436   1.87627
   A22        1.91063  -0.04186   0.00000  -0.03394  -0.03437   1.87627
   A23        1.91063  -0.00345   0.00000  -0.00370  -0.00416   1.90647
    D1        3.14159   0.01586   0.00000   0.01398   0.01332  -3.12827
    D2       -0.73903  -0.02187   0.00000  -0.01740  -0.01729  -0.75632
    D3       -1.20129   0.01886   0.00000   0.01569   0.01531  -1.18598
    D4        1.20128  -0.01886   0.00000  -0.01569  -0.01531   1.18598
    D5        0.73902   0.02186   0.00000   0.01739   0.01728   0.75630
    D6        3.14159  -0.01587   0.00000  -0.01399  -0.01333   3.12826
    D7       -2.18660  -0.00171   0.00000  -0.00187  -0.00161  -2.18821
    D8       -0.00016  -0.00003   0.00000  -0.00005  -0.00004  -0.00021
    D9        1.91047  -0.00339   0.00000  -0.00369  -0.00318   1.90729
   D10       -0.00032  -0.00000   0.00000  -0.00000  -0.00000  -0.00033
   D11        2.18611   0.00168   0.00000   0.00181   0.00156   2.18768
   D12       -2.18644  -0.00169   0.00000  -0.00182  -0.00157  -2.18801
   D13        2.18595   0.00171   0.00000   0.00187   0.00161   2.18756
   D14       -1.91080   0.00339   0.00000   0.00369   0.00318  -1.90762
   D15       -0.00016   0.00002   0.00000   0.00005   0.00004  -0.00012
   D16        1.20071  -0.01889   0.00000  -0.01573  -0.01535   1.18536
   D17        3.14140  -0.01632   0.00000  -0.01429  -0.01362   3.12778
   D18       -0.74000  -0.02146   0.00000  -0.01718  -0.01709  -0.75708
   D19       -1.20108   0.01889   0.00000   0.01574   0.01535  -1.18573
   D20        0.73961   0.02147   0.00000   0.01718   0.01709   0.75669
   D21        3.14140   0.01632   0.00000   0.01429   0.01362  -3.12817
         Item               Value     Threshold  Converged?
 Maximum Force            0.378537     0.000450     NO 
 RMS     Force            0.061748     0.000300     NO 
 Maximum Displacement     0.159507     0.001800     NO 
 RMS     Displacement     0.064293     0.001200     NO 
 Predicted change in Energy=-1.258047D-01
 GradGradGradGradGradGradGradGradGradGradGradGradGradGradGradGradGradGrad

                          Input orientation:                          
 ---------------------------------------------------------------------
 Center     Atomic      Atomic             Coordinates (Angstroms)
 Number     Number       Type             X           Y           Z
 ---------------------------------------------------------------------
      1          6           0       -0.195149    0.593931    0.706593
      2          1           0        0.160734    1.124208    1.568616
      3          1           0        0.155146    1.129134   -0.174422
      4          1           0       -1.267588    0.619252    0.693945
      5          6           0        0.462249   -0.584024    0.313124
      6          1           0        0.093327   -1.089082   -0.561218
      7          1           0        1.537206   -0.578609    0.322972
      8          6           0       -0.196269   -0.832902    1.532179
      9          1           0        0.154018   -1.863392    1.554704
     10          1           0        0.159766   -0.351574    2.422382
     11          1           0       -1.268698   -0.856265    1.547852
 ---------------------------------------------------------------------
                    Distance matrix (angstroms):
                    1          2          3          4          5
     1  C    0.000000
     2  H    1.072814   0.000000
     3  H    1.088731   1.743053   0.000000
     4  H    1.072812   1.749323   1.743047   0.000000
     5  C    1.405193   2.141315   1.807463   2.141316   0.000000
     6  H    2.126757   3.072359   2.252535   2.519113   1.075016
     7  H    2.126751   2.519105   2.252527   3.072354   1.075016
     8  C    1.648468   1.989739   2.624036   1.989751   1.407723
     9  H    2.622908   2.987641   3.456167   2.987539   1.809229
    10  H    1.990948   1.704949   2.989298   2.442813   2.143478
    11  H    1.990801   2.442535   2.989208   1.704789   2.143559
                    6          7          8          9         10
     6  H    0.000000
     7  H    1.768379   0.000000
     8  C    2.128804   2.128799   0.000000
     9  H    2.253966   2.254117   1.088631   0.000000
    10  H    3.074118   2.521191   1.072799   1.743127   0.000000
    11  H    2.521406   3.074170   1.072797   1.743122   1.749292
                   11
    11  H    0.000000
 Stoichiometry    C3H8
 Framework group  C1[X(C3H8)]
 Deg. of freedom    27
 Full point group                 C1      NOp   1
 Largest Abelian subgroup         C1      NOp   1
 Largest concise Abelian subgroup C1      NOp   1
                         Standard orientation:                         
 ---------------------------------------------------------------------
 Center     Atomic      Atomic             Coordinates (Angstroms)
 Number     Number       Type             X           Y           Z
 ---------------------------------------------------------------------
      1          6           0       -0.822123   -0.352301   -0.000001
      2          1           0       -0.847065   -0.973008    0.874659
      3          1           0       -1.729332    0.249620    0.000004
      4          1           0       -0.847080   -0.973000   -0.874664
      5          6           0       -0.004763    0.790718   -0.000001
      6          1           0       -0.007773    1.402163   -0.884187
      7          1           0       -0.007776    1.402153    0.884192
      8          6           0        0.826331   -0.345490    0.000000
      9          1           0        1.726795    0.266296   -0.000193
     10          1           0        0.857869   -0.965752    0.874744
     11          1           0        0.857695   -0.966035   -0.874548
 ---------------------------------------------------------------------
 Rotational constants (GHZ):          22.0080466          16.8948102          11.6027145
 Standard basis: def2SVP (5D, 7F)
 There are    85 symmetry adapted cartesian basis functions of A   symmetry.
 There are    82 symmetry adapted basis functions of A   symmetry.
    82 basis functions,   131 primitive gaussians,    85 cartesian basis functions
    13 alpha electrons       13 beta electrons
       nuclear repulsion energy        92.9365441807 Hartrees.
 NAtoms=   11 NActive=   11 NUniq=   11 SFac= 1.00D+00 NAtFMM=   60 NAOKFM=F Big=F
 Integral buffers will be    131072 words long.
 Raffenetti 2 integral format.
 Two-electron integral symmetry is turned on.
 Nuclear repulsion after empirical dispersion term =       92.9329528089 Hartrees.
 One-electron integrals computed using PRISM.
   1 Symmetry operations used in ECPInt.
 ECPInt:  NShTT=     903 NPrTT=    2989 LenC2=     904 LenP2D=    2789.
 LDataN:  DoStor=T MaxTD1= 4 Len=   56
 NBasis=    82 RedAO= T EigKep=  1.31D-03  NBF=    82
 NBsUse=    82 1.00D-06 EigRej= -1.00D+00 NBFU=    82
 Initial guess from the checkpoint file:  "cyclopropane.chk"
 B after Tr=    -0.000000   -0.000000    0.000000
         Rot=    0.999959   -0.000001    0.000001    0.009031 Ang=  -1.03 deg.
 ExpMin= 1.22D-01 ExpMax= 1.24D+03 ExpMxC= 1.86D+02 IAcc=2 IRadAn=         4 AccDes= 0.00D+00
 Harris functional with IExCor=  402 and IRadAn=       4 diagonalized for initial guess.
 HarFok:  IExCor=  402 AccDes= 0.00D+00 IRadAn=         4 IDoV= 1 UseB2=F ITyADJ=14
 ICtDFT=  3500011 ScaDFX=  1.000000  1.000000  1.000000  1.000000
 FoFCou: FMM=F IPFlag=           0 FMFlag=      100000 FMFlg1=           0
         NFxFlg=           0 DoJE=T BraDBF=F KetDBF=T FulRan=T
         wScrn=  0.000000 ICntrl=       500 IOpCl=  0 I1Cent=   200000004 NGrid=           0
         NMat0=    1 NMatS0=      1 NMatT0=    0 NMatD0=    1 NMtDS0=    0 NMtDT0=    0
 Petite list used in FoFCou.
 Keep R1 ints in memory in canonical form, NReq=6701822.
 Requested convergence on RMS density matrix=1.00D-08 within 128 cycles.
 Requested convergence on MAX density matrix=1.00D-06.
 Requested convergence on             energy=1.00D-06.
 No special actions if energy rises.
 Integral accuracy reduced to 1.0D-05 until final iterations.
 Initial convergence to 1.0D-05 achieved.  Increase integral accuracy.
 SCF Done:  E(RB3LYP) =  -118.824300803     A.U. after   11 cycles
            NFock= 11  Conv=0.71D-08     -V/T= 2.0022
   1 Symmetry operations used in ECPInt.
 ECPInt:  NShTT=     903 NPrTT=    2989 LenC2=     904 LenP2D=    2789.
 LDataN:  DoStor=T MaxTD1= 5 Len=  102
 Calling FoFJK, ICntrl=      2127 FMM=F ISym2X=0 I1Cent= 0 IOpClX= 0 NMat=1 NMatS=1 NMatT=0.
 ***** Axes restored to original set *****
 -------------------------------------------------------------------
 Center     Atomic                   Forces (Hartrees/Bohr)
 Number     Number              X              Y              Z
 -------------------------------------------------------------------
      1        6           0.009168203    0.217861810   -0.140754355
      2        1           0.007488897    0.014482409    0.001113167
      3        1          -0.015626696    0.068705389   -0.014139762
      4        1          -0.010230149    0.008222012   -0.009745665
      5        6           0.013036262   -0.010656071   -0.015138100
      6        1          -0.009372545   -0.005728886   -0.009844308
      7        1           0.013862105    0.002485971    0.004384384
      8        6           0.009937858   -0.230236703    0.116701942
      9        1          -0.015567625   -0.046437355    0.052224337
     10        1           0.007515329   -0.006215444    0.013025727
     11        1          -0.010211639   -0.012483132    0.002172633
 -------------------------------------------------------------------
 Cartesian Forces:  Max     0.230236703 RMS     0.066603548

 GradGradGradGradGradGradGradGradGradGradGradGradGradGradGradGradGradGrad
 Berny optimization.
 Using GEDIIS/GDIIS optimizer.
 FormGI is forming the generalized inverse of G from B-inverse, IUseBI=4.
 Internal  Forces:  Max     0.268893679 RMS     0.043645746
 Search for a local minimum.
 Step number   2 out of a maximum of   65
 All quantities printed in internal units (Hartrees-Bohrs-Radians)
 Mixed Optimization -- RFO/linear search
 Update second derivatives using D2CorX and points    1    2
 DE= -1.17D-01 DEPred=-1.26D-01 R= 9.29D-01
 TightC=F SS=  1.41D+00  RLast= 3.05D-01 DXNew= 5.0454D-01 9.1475D-01
 Trust test= 9.29D-01 RLast= 3.05D-01 DXMaxT set to 5.05D-01
 ITU=  1  0
 Use linear search instead of GDIIS.
 Linear search step of   0.600 exceeds DXMaxT=   0.505 but not scaled.
 Quartic linear search produced a step of  2.00000.
 Iteration  1 RMS(Cart)=  0.07892826 RMS(Int)=  0.03670251
 Iteration  2 RMS(Cart)=  0.04709842 RMS(Int)=  0.00604738
 Iteration  3 RMS(Cart)=  0.00895091 RMS(Int)=  0.00194078
 Iteration  4 RMS(Cart)=  0.00002182 RMS(Int)=  0.00194060
 Iteration  5 RMS(Cart)=  0.00000003 RMS(Int)=  0.00194060
 Variable       Old X    -DE/DX   Delta X   Delta X   Delta X     New X
                                 (Linear)    (Quad)   (Total)
    R1        2.02732   0.01054   0.01064   0.00000   0.01064   2.03796
    R2        2.05740   0.04019   0.07079   0.00000   0.07079   2.12820
    R3        2.02732   0.01054   0.01063   0.00000   0.01063   2.03795
    R4        2.65543   0.06015   0.08766   0.00000   0.08672   2.74215
    R5        3.11515   0.26889   0.49816   0.00000   0.49975   3.61490
    R6        2.03149   0.01391   0.01896   0.00000   0.01896   2.05045
    R7        2.03149   0.01391   0.01896   0.00000   0.01896   2.05044
    R8        2.66021   0.05802   0.08437   0.00000   0.08321   2.74342
    R9        2.05721   0.04003   0.07042   0.00000   0.07042   2.12763
   R10        2.02730   0.01051   0.01058   0.00000   0.01058   2.03788
   R11        2.02729   0.01051   0.01057   0.00000   0.01057   2.03787
    A1        1.87601  -0.02800  -0.06924   0.00000  -0.07147   1.80454
    A2        1.90648   0.00053  -0.00830   0.00000  -0.01098   1.89551
    A3        2.07619  -0.00622   0.00253   0.00000   0.00304   2.07923
    A4        1.59644   0.01764   0.05301   0.00000   0.05310   1.64954
    A5        1.87600  -0.02800  -0.06926   0.00000  -0.07149   1.80452
    A6        1.60578   0.07028   0.14164   0.00000   0.14079   1.74657
    A7        2.55166   0.02323   0.04811   0.00000   0.04650   2.59817
    A8        2.07619  -0.00622   0.00254   0.00000   0.00305   2.07925
    A9        1.59645   0.01764   0.05304   0.00000   0.05313   1.64958
   A10        2.04995  -0.02709  -0.04995   0.00000  -0.04865   2.00130
   A11        2.04994  -0.02710  -0.04997   0.00000  -0.04867   2.00128
   A12        1.93155   0.02586   0.04183   0.00000   0.03444   1.96599
   A13        2.04961  -0.02714  -0.05008   0.00000  -0.04880   2.00081
   A14        2.04960  -0.02715  -0.05009   0.00000  -0.04881   2.00079
   A15        2.54895   0.02381   0.04867   0.00000   0.04677   2.59572
   A16        1.59781   0.01709   0.05211   0.00000   0.05240   1.65021
   A17        1.59764   0.01710   0.05215   0.00000   0.05244   1.65008
   A18        1.60555   0.06946   0.13967   0.00000   0.13910   1.74466
   A19        2.07603  -0.00603   0.00290   0.00000   0.00329   2.07933
   A20        2.07616  -0.00604   0.00289   0.00000   0.00329   2.07945
   A21        1.87627  -0.02780  -0.06872   0.00000  -0.07096   1.80532
   A22        1.87627  -0.02781  -0.06873   0.00000  -0.07097   1.80530
   A23        1.90647   0.00051  -0.00832   0.00000  -0.01089   1.89558
    D1       -3.12827   0.00433   0.02665   0.00000   0.02302  -3.10525
    D2       -0.75632  -0.02102  -0.03458   0.00000  -0.03438  -0.79070
    D3       -1.18598   0.01268   0.03062   0.00000   0.02871  -1.15727
    D4        1.18598  -0.01268  -0.03061   0.00000  -0.02870   1.15727
    D5        0.75630   0.02102   0.03457   0.00000   0.03437   0.79067
    D6        3.12826  -0.00433  -0.02666   0.00000  -0.02304   3.10522
    D7       -2.18821   0.00090  -0.00322   0.00000  -0.00161  -2.18982
    D8       -0.00021   0.00000  -0.00009   0.00000  -0.00006  -0.00027
    D9        1.90729   0.00181  -0.00636   0.00000  -0.00317   1.90412
   D10       -0.00033  -0.00000  -0.00001   0.00000  -0.00001  -0.00033
   D11        2.18768  -0.00091   0.00313   0.00000   0.00154   2.18922
   D12       -2.18801   0.00090  -0.00315   0.00000  -0.00156  -2.18958
   D13        2.18756  -0.00091   0.00322   0.00000   0.00161   2.18918
   D14       -1.90762  -0.00181   0.00636   0.00000   0.00316  -1.90446
   D15       -0.00012  -0.00000   0.00008   0.00000   0.00005  -0.00007
   D16        1.18536  -0.01270  -0.03070   0.00000  -0.02878   1.15658
   D17        3.12778  -0.00459  -0.02723   0.00000  -0.02353   3.10425
   D18       -0.75708  -0.02081  -0.03417   0.00000  -0.03403  -0.79112
   D19       -1.18573   0.01270   0.03071   0.00000   0.02879  -1.15694
   D20        0.75669   0.02081   0.03417   0.00000   0.03404   0.79073
   D21       -3.12817   0.00459   0.02724   0.00000   0.02353  -3.10464
         Item               Value     Threshold  Converged?
 Maximum Force            0.268894     0.000450     NO 
 RMS     Force            0.043646     0.000300     NO 
 Maximum Displacement     0.323335     0.001800     NO 
 RMS     Displacement     0.129382     0.001200     NO 
 Predicted change in Energy=-1.139290D-01
 GradGradGradGradGradGradGradGradGradGradGradGradGradGradGradGradGradGrad

                          Input orientation:                          
 ---------------------------------------------------------------------
 Center     Atomic      Atomic             Coordinates (Angstroms)
 Number     Number       Type             X           Y           Z
 ---------------------------------------------------------------------
      1          6           0       -0.183701    0.700586    0.626325
      2          1           0        0.171435    1.281760    1.462478
      3          1           0        0.152879    1.297082   -0.267666
      4          1           0       -1.258754    0.776162    0.586641
      5          6           0        0.446208   -0.573344    0.333139
      6          1           0        0.056356   -1.080156   -0.543496
      7          1           0        1.530841   -0.558854    0.359449
      8          6           0       -0.184437   -0.955549    1.583661
      9          1           0        0.152511   -2.027664    1.652015
     10          1           0        0.170873   -0.521982    2.504918
     11          1           0       -1.259469   -1.027366    1.629262
 ---------------------------------------------------------------------
                    Distance matrix (angstroms):
                    1          2          3          4          5
     1  C    0.000000
     2  H    1.078442   0.000000
     3  H    1.126194   1.730312   0.000000
     4  H    1.078437   1.751617   1.730291   0.000000
     5  C    1.451083   2.189136   1.986329   2.189139   0.000000
     6  H    2.144097   3.100939   2.395132   2.540205   1.085049
     7  H    2.144077   2.540180   2.395109   3.100923   1.085048
     8  C    1.912924   2.268674   2.935224   2.268707   1.451758
     9  H    2.934013   3.314901   3.839155   3.314836   1.985130
    10  H    2.269253   2.083306   3.316103   2.721911   2.189765
    11  H    2.269136   2.721648   3.316040   2.083212   2.189842
                    6          7          8          9         10
     6  H    0.000000
     7  H    1.805871   0.000000
     8  C    2.144366   2.144351   0.000000
     9  H    2.393175   2.393308   1.125894   0.000000
    10  H    3.101210   2.540455   1.078397   1.730567   0.000000
    11  H    2.540681   3.101251   1.078392   1.730549   1.751589
                   11
    11  H    0.000000
 Stoichiometry    C3H8
 Framework group  C1[X(C3H8)]
 Deg. of freedom    27
 Full point group                 C1      NOp   1
 Largest Abelian subgroup         C1      NOp   1
 Largest concise Abelian subgroup C1      NOp   1
                         Standard orientation:                         
 ---------------------------------------------------------------------
 Center     Atomic      Atomic             Coordinates (Angstroms)
 Number     Number       Type             X           Y           Z
 ---------------------------------------------------------------------
      1          6           0       -0.956295   -0.331177   -0.000002
      2          1           0       -1.041116   -0.954723    0.875802
      3          1           0       -1.920266    0.251122    0.000011
      4          1           0       -1.041156   -0.954697   -0.875815
      5          6           0       -0.000373    0.760544   -0.000002
      6          1           0       -0.000177    1.362256   -0.902927
      7          1           0       -0.000184    1.362224    0.902944
      8          6           0        0.956629   -0.331128   -0.000000
      9          1           0        1.918888    0.253417   -0.000180
     10          1           0        1.042191   -0.954376    0.875889
     11          1           0        1.042057   -0.954653   -0.875700
 ---------------------------------------------------------------------
 Rotational constants (GHZ):          23.1367938          13.1293536           9.9357987
 Standard basis: def2SVP (5D, 7F)
 There are    85 symmetry adapted cartesian basis functions of A   symmetry.
 There are    82 symmetry adapted basis functions of A   symmetry.
    82 basis functions,   131 primitive gaussians,    85 cartesian basis functions
    13 alpha electrons       13 beta electrons
       nuclear repulsion energy        88.3542392189 Hartrees.
 NAtoms=   11 NActive=   11 NUniq=   11 SFac= 1.00D+00 NAtFMM=   60 NAOKFM=F Big=F
 Integral buffers will be    131072 words long.
 Raffenetti 2 integral format.
 Two-electron integral symmetry is turned on.
 Nuclear repulsion after empirical dispersion term =       88.3502821171 Hartrees.
 One-electron integrals computed using PRISM.
   1 Symmetry operations used in ECPInt.
 ECPInt:  NShTT=     903 NPrTT=    2989 LenC2=     904 LenP2D=    2774.
 LDataN:  DoStor=T MaxTD1= 4 Len=   56
 NBasis=    82 RedAO= T EigKep=  1.66D-03  NBF=    82
 NBsUse=    82 1.00D-06 EigRej= -1.00D+00 NBFU=    82
 Initial guess from the checkpoint file:  "cyclopropane.chk"
 B after Tr=    -0.000000    0.000000   -0.000000
         Rot=    0.999997   -0.000002    0.000001    0.002299 Ang=  -0.26 deg.
 ExpMin= 1.22D-01 ExpMax= 1.24D+03 ExpMxC= 1.86D+02 IAcc=2 IRadAn=         4 AccDes= 0.00D+00
 Harris functional with IExCor=  402 and IRadAn=       4 diagonalized for initial guess.
 HarFok:  IExCor=  402 AccDes= 0.00D+00 IRadAn=         4 IDoV= 1 UseB2=F ITyADJ=14
 ICtDFT=  3500011 ScaDFX=  1.000000  1.000000  1.000000  1.000000
 FoFCou: FMM=F IPFlag=           0 FMFlag=      100000 FMFlg1=           0
         NFxFlg=           0 DoJE=T BraDBF=F KetDBF=T FulRan=T
         wScrn=  0.000000 ICntrl=       500 IOpCl=  0 I1Cent=   200000004 NGrid=           0
         NMat0=    1 NMatS0=      1 NMatT0=    0 NMatD0=    1 NMtDS0=    0 NMtDT0=    0
 Petite list used in FoFCou.
 Keep R1 ints in memory in canonical form, NReq=6701822.
 Requested convergence on RMS density matrix=1.00D-08 within 128 cycles.
 Requested convergence on MAX density matrix=1.00D-06.
 Requested convergence on             energy=1.00D-06.
 No special actions if energy rises.
 Integral accuracy reduced to 1.0D-05 until final iterations.
 Initial convergence to 1.0D-05 achieved.  Increase integral accuracy.
 SCF Done:  E(RB3LYP) =  -118.963076880     A.U. after   11 cycles
            NFock= 11  Conv=0.69D-08     -V/T= 2.0082
   1 Symmetry operations used in ECPInt.
 ECPInt:  NShTT=     903 NPrTT=    2989 LenC2=     904 LenP2D=    2774.
 LDataN:  DoStor=T MaxTD1= 5 Len=  102
 Calling FoFJK, ICntrl=      2127 FMM=F ISym2X=0 I1Cent= 0 IOpClX= 0 NMat=1 NMatS=1 NMatT=0.
 ***** Axes restored to original set *****
 -------------------------------------------------------------------
 Center     Atomic                   Forces (Hartrees/Bohr)
 Number     Number              X              Y              Z
 -------------------------------------------------------------------
      1        6           0.024579665    0.127625625   -0.113816892
      2        1           0.007110202   -0.000556330    0.012635728
      3        1          -0.012198696    0.024548967    0.005752767
      4        1          -0.012428466   -0.007463375    0.000672373
      5        6          -0.019789248    0.013826806    0.024329081
      6        1          -0.002491829   -0.003823353   -0.006631939
      7        1           0.008048422   -0.000099592   -0.000178100
      8        6           0.024721558   -0.162124922    0.053228767
      9        1          -0.012250040   -0.007448633    0.024311544
     10        1           0.007143363    0.011216154    0.005847212
     11        1          -0.012444932    0.004298652   -0.006150541
 -------------------------------------------------------------------
 Cartesian Forces:  Max     0.162124922 RMS     0.043798617

 GradGradGradGradGradGradGradGradGradGradGradGradGradGradGradGradGradGrad
 Berny optimization.
 Using GEDIIS/GDIIS optimizer.
 FormGI is forming the generalized inverse of G from B-inverse, IUseBI=4.
 Internal  Forces:  Max     0.135002946 RMS     0.021800998
 Search for a local minimum.
 Step number   3 out of a maximum of   65
 All quantities printed in internal units (Hartrees-Bohrs-Radians)
 Mixed Optimization -- RFO/linear search
 Update second derivatives using D2CorX and points    2    3
 ITU=  0  1  0
 Use linear search instead of GDIIS.
 Linear search step of   1.202 exceeds DXMaxT=   0.505 scaled by   0.839
 Quartic linear search produced a step of  1.67865.
 Iteration  1 RMS(Cart)=  0.10788913 RMS(Int)=  0.07988232
 Iteration  2 RMS(Cart)=  0.05858567 RMS(Int)=  0.04185585
 Iteration  3 RMS(Cart)=  0.05049793 RMS(Int)=  0.01122978
 Iteration  4 RMS(Cart)=  0.01609730 RMS(Int)=  0.00513666
 Iteration  5 RMS(Cart)=  0.00007153 RMS(Int)=  0.00513611
 Iteration  6 RMS(Cart)=  0.00000024 RMS(Int)=  0.00513611
 Variable       Old X    -DE/DX   Delta X   Delta X   Delta X     New X
                                 (Linear)    (Quad)   (Total)
    R1        2.03796   0.01184   0.01785   0.00000   0.01785   2.05581
    R2        2.12820   0.00479   0.11884   0.00000   0.11884   2.24704
    R3        2.03795   0.01184   0.01784   0.00000   0.01784   2.05579
    R4        2.74215   0.01534   0.14557   0.00000   0.14656   2.88871
    R5        3.61490   0.13500   0.83890   0.00000   0.83784   4.45274
    R6        2.05045   0.00804   0.03183   0.00000   0.03183   2.08227
    R7        2.05044   0.00804   0.03182   0.00000   0.03182   2.08227
    R8        2.74342   0.01505   0.13969   0.00000   0.14034   2.88376
    R9        2.12763   0.00490   0.11820   0.00000   0.11820   2.24583
   R10        2.03788   0.01186   0.01776   0.00000   0.01776   2.05563
   R11        2.03787   0.01186   0.01775   0.00000   0.01775   2.05561
    A1        1.80454  -0.00870  -0.11997   0.00000  -0.12500   1.67954
    A2        1.89551   0.00483  -0.01843   0.00000  -0.02575   1.86976
    A3        2.07923  -0.01079   0.00511   0.00000   0.00577   2.08500
    A4        1.64954   0.00190   0.08914   0.00000   0.08997   1.73952
    A5        1.80452  -0.00870  -0.12000   0.00000  -0.12503   1.67949
    A6        1.74657   0.03855   0.23634   0.00000   0.23550   1.98207
    A7        2.59817   0.01061   0.07806   0.00000   0.07299   2.67116
    A8        2.07925  -0.01079   0.00512   0.00000   0.00578   2.08502
    A9        1.64958   0.00190   0.08918   0.00000   0.09001   1.73959
   A10        2.00130  -0.01524  -0.08166   0.00000  -0.08029   1.92102
   A11        2.00128  -0.01524  -0.08169   0.00000  -0.08031   1.92096
   A12        1.96599   0.01175   0.05781   0.00000   0.03827   2.00426
   A13        2.00081  -0.01526  -0.08192   0.00000  -0.08062   1.92019
   A14        2.00079  -0.01526  -0.08194   0.00000  -0.08063   1.92015
   A15        2.59572   0.01085   0.07851   0.00000   0.07277   2.66849
   A16        1.65021   0.00183   0.08796   0.00000   0.08925   1.73946
   A17        1.65008   0.00183   0.08802   0.00000   0.08931   1.73939
   A18        1.74466   0.03864   0.23351   0.00000   0.23333   1.97798
   A19        2.07933  -0.01077   0.00553   0.00000   0.00596   2.08528
   A20        2.07945  -0.01078   0.00552   0.00000   0.00595   2.08540
   A21        1.80532  -0.00877  -0.11911   0.00000  -0.12416   1.68116
   A22        1.80530  -0.00877  -0.11913   0.00000  -0.12418   1.68111
   A23        1.89558   0.00484  -0.01829   0.00000  -0.02541   1.87017
    D1       -3.10525  -0.00377   0.03865   0.00000   0.02902  -3.07623
    D2       -0.79070  -0.01782  -0.05772   0.00000  -0.05936  -0.85006
    D3       -1.15727   0.00703   0.04819   0.00000   0.04419  -1.11308
    D4        1.15727  -0.00703  -0.04818   0.00000  -0.04418   1.11309
    D5        0.79067   0.01782   0.05770   0.00000   0.05934   0.85001
    D6        3.10522   0.00376  -0.03867   0.00000  -0.02904   3.07618
    D7       -2.18982   0.00265  -0.00270   0.00000   0.00257  -2.18724
    D8       -0.00027   0.00000  -0.00011   0.00000  -0.00009  -0.00036
    D9        1.90412   0.00530  -0.00531   0.00000   0.00521   1.90934
   D10       -0.00033  -0.00000  -0.00001   0.00000  -0.00001  -0.00034
   D11        2.18922  -0.00265   0.00259   0.00000  -0.00267   2.18654
   D12       -2.18958   0.00265  -0.00262   0.00000   0.00263  -2.18695
   D13        2.18918  -0.00265   0.00270   0.00000  -0.00257   2.18661
   D14       -1.90446  -0.00530   0.00530   0.00000  -0.00523  -1.90969
   D15       -0.00007  -0.00000   0.00009   0.00000   0.00007   0.00001
   D16        1.15658  -0.00702  -0.04831   0.00000  -0.04428   1.11230
   D17        3.10425   0.00376  -0.03950   0.00000  -0.02965   3.07460
   D18       -0.79112  -0.01780  -0.05713   0.00000  -0.05889  -0.85001
   D19       -1.15694   0.00702   0.04832   0.00000   0.04428  -1.11266
   D20        0.79073   0.01780   0.05714   0.00000   0.05890   0.84963
   D21       -3.10464  -0.00376   0.03950   0.00000   0.02966  -3.07498
         Item               Value     Threshold  Converged?
 Maximum Force            0.135003     0.000450     NO 
 RMS     Force            0.021801     0.000300     NO 
 Maximum Displacement     0.556472     0.001800     NO 
 RMS     Displacement     0.219404     0.001200     NO 
 Predicted change in Energy=-1.032024D-02
 GradGradGradGradGradGradGradGradGradGradGradGradGradGradGradGradGradGrad

                          Input orientation:                          
 ---------------------------------------------------------------------
 Center     Atomic      Atomic             Coordinates (Angstroms)
 Number     Number       Type             X           Y           Z
 ---------------------------------------------------------------------
      1          6           0       -0.160515    0.876536    0.486883
      2          1           0        0.196318    1.540463    1.271341
      3          1           0        0.150767    1.574301   -0.424236
      4          1           0       -1.232916    1.035227    0.396041
      5          6           0        0.400526   -0.542098    0.389674
      6          1           0       -0.014974   -1.053272   -0.493629
      7          1           0        1.501206   -0.517218    0.434867
      8          6           0       -0.160713   -1.163955    1.665231
      9          1           0        0.151705   -2.301256    1.811314
     10          1           0        0.196424   -0.816454    2.632182
     11          1           0       -1.233088   -1.321600    1.757061
 ---------------------------------------------------------------------
                    Distance matrix (angstroms):
                    1          2          3          4          5
     1  C    0.000000
     2  H    1.087889   0.000000
     3  H    1.189080   1.696526   0.000000
     4  H    1.087879   1.750464   1.696477   0.000000
     5  C    1.528640   2.270704   2.281222   2.270711   0.000000
     6  H    2.169504   3.144396   2.633709   2.576184   1.101891
     7  H    2.169464   2.576135   2.633666   3.144363   1.101889
     8  C    2.356291   2.756174   3.458459   2.756241   1.526021
     9  H    3.456872   3.879739   4.474107   3.879729   2.275436
    10  H    2.756071   2.721571   3.880656   3.236057   2.268428
    11  H    2.756006   3.235821   3.880639   2.721583   2.268494
                    6          7          8          9         10
     6  H    0.000000
     7  H    1.856949   0.000000
     8  C    2.166603   2.166573   0.000000
     9  H    2.626406   2.626510   1.188445   0.000000
    10  H    3.141889   2.572973   1.087795   1.697192   0.000000
    11  H    2.573210   3.141909   1.087784   1.697151   1.750576
                   11
    11  H    0.000000
 Stoichiometry    C3H8
 Framework group  C1[X(C3H8)]
 Deg. of freedom    27
 Full point group                 C1      NOp   1
 Largest Abelian subgroup         C1      NOp   1
 Largest concise Abelian subgroup C1      NOp   1
                         Standard orientation:                         
 ---------------------------------------------------------------------
 Center     Atomic      Atomic             Coordinates (Angstroms)
 Number     Number       Type             X           Y           Z
 ---------------------------------------------------------------------
      1          6           0       -1.178896   -0.289952   -0.000005
      2          1           0       -1.362094   -0.909577    0.875213
      3          1           0       -2.238357    0.249913    0.000028
      4          1           0       -1.362175   -0.909495   -0.875251
      5          6           0        0.001760    0.681022    0.000000
      6          1           0        0.003228    1.274440   -0.928449
      7          1           0        0.003218    1.274355    0.928501
      8          6           0        1.177394   -0.291923   -0.000004
      9          1           0        2.235750    0.248708   -0.000154
     10          1           0        1.359477   -0.911492    0.875369
     11          1           0        1.359407   -0.911734   -0.875207
 ---------------------------------------------------------------------
 Rotational constants (GHZ):          26.3816975           9.0747489           7.7517737
 Standard basis: def2SVP (5D, 7F)
 There are    85 symmetry adapted cartesian basis functions of A   symmetry.
 There are    82 symmetry adapted basis functions of A   symmetry.
    82 basis functions,   131 primitive gaussians,    85 cartesian basis functions
    13 alpha electrons       13 beta electrons
       nuclear repulsion energy        82.3131058248 Hartrees.
 NAtoms=   11 NActive=   11 NUniq=   11 SFac= 1.00D+00 NAtFMM=   60 NAOKFM=F Big=F
 Integral buffers will be    131072 words long.
 Raffenetti 2 integral format.
 Two-electron integral symmetry is turned on.
 Nuclear repulsion after empirical dispersion term =       82.3087852813 Hartrees.
 One-electron integrals computed using PRISM.
   1 Symmetry operations used in ECPInt.
 ECPInt:  NShTT=     903 NPrTT=    2989 LenC2=     904 LenP2D=    2741.
 LDataN:  DoStor=T MaxTD1= 4 Len=   56
 NBasis=    82 RedAO= T EigKep=  3.02D-03  NBF=    82
 NBsUse=    82 1.00D-06 EigRej= -1.00D+00 NBFU=    82
 Initial guess from the checkpoint file:  "cyclopropane.chk"
 B after Tr=    -0.000000   -0.000000    0.000000
         Rot=    1.000000   -0.000008    0.000000    0.000677 Ang=  -0.08 deg.
 ExpMin= 1.22D-01 ExpMax= 1.24D+03 ExpMxC= 1.86D+02 IAcc=2 IRadAn=         4 AccDes= 0.00D+00
 Harris functional with IExCor=  402 and IRadAn=       4 diagonalized for initial guess.
 HarFok:  IExCor=  402 AccDes= 0.00D+00 IRadAn=         4 IDoV= 1 UseB2=F ITyADJ=14
 ICtDFT=  3500011 ScaDFX=  1.000000  1.000000  1.000000  1.000000
 FoFCou: FMM=F IPFlag=           0 FMFlag=      100000 FMFlg1=           0
         NFxFlg=           0 DoJE=T BraDBF=F KetDBF=T FulRan=T
         wScrn=  0.000000 ICntrl=       500 IOpCl=  0 I1Cent=   200000004 NGrid=           0
         NMat0=    1 NMatS0=      1 NMatT0=    0 NMatD0=    1 NMtDS0=    0 NMtDT0=    0
 Petite list used in FoFCou.
 Keep R1 ints in memory in canonical form, NReq=6701822.
 Requested convergence on RMS density matrix=1.00D-08 within 128 cycles.
 Requested convergence on MAX density matrix=1.00D-06.
 Requested convergence on             energy=1.00D-06.
 No special actions if energy rises.
 Integral accuracy reduced to 1.0D-05 until final iterations.
 Initial convergence to 1.0D-05 achieved.  Increase integral accuracy.
 SCF Done:  E(RB3LYP) =  -119.032478521     A.U. after   11 cycles
            NFock= 11  Conv=0.71D-08     -V/T= 2.0147
   1 Symmetry operations used in ECPInt.
 ECPInt:  NShTT=     903 NPrTT=    2989 LenC2=     904 LenP2D=    2741.
 LDataN:  DoStor=T MaxTD1= 5 Len=  102
 Calling FoFJK, ICntrl=      2127 FMM=F ISym2X=0 I1Cent= 0 IOpClX= 0 NMat=1 NMatS=1 NMatT=0.
 ***** Axes restored to original set *****
 -------------------------------------------------------------------
 Center     Atomic                   Forces (Hartrees/Bohr)
 Number     Number              X              Y              Z
 -------------------------------------------------------------------
      1        6           0.022983546    0.057822326   -0.070906045
      2        1           0.004146032   -0.008346526    0.018550077
      3        1          -0.003096541   -0.027537018    0.020959597
      4        1          -0.012603681   -0.014266454    0.008300579
      5        6          -0.028343623    0.020953726    0.034185854
      6        1           0.007915694   -0.000271323   -0.000680634
      7        1          -0.001952776   -0.003765003   -0.006726934
      8        6           0.022703948   -0.090667289    0.015270114
      9        1          -0.003271392    0.031697074   -0.012944145
     10        1           0.004151880    0.020152109    0.002134156
     11        1          -0.012633088    0.014228378   -0.008142618
 -------------------------------------------------------------------
 Cartesian Forces:  Max     0.090667289 RMS     0.027255629

 GradGradGradGradGradGradGradGradGradGradGradGradGradGradGradGradGradGrad
 Berny optimization.
 Using GEDIIS/GDIIS optimizer.
 FormGI is forming the generalized inverse of G from B-inverse, IUseBI=4.
 Internal  Forces:  Max     0.033029708 RMS     0.010229820
 Search for a local minimum.
 Step number   4 out of a maximum of   65
 All quantities printed in internal units (Hartrees-Bohrs-Radians)
 Mixed Optimization -- RFO/linear search
 Update second derivatives using D2CorX and points    3    4
 ITU=  0  0  1  0
 Use linear search instead of GDIIS.
     Eigenvalues ---    0.00940   0.01801   0.02750   0.03284   0.05297
     Eigenvalues ---    0.05315   0.07037   0.07487   0.07636   0.12334
     Eigenvalues ---    0.12890   0.13532   0.14217   0.14874   0.16000
     Eigenvalues ---    0.16000   0.17940   0.37046   0.37230   0.37230
     Eigenvalues ---    0.37230   0.37230   0.37230   0.37230   0.37558
     Eigenvalues ---    0.39400   0.45768
 RFO step:  Lambda=-2.44944504D-02 EMin= 9.39653493D-03
 Quartic linear search produced a step of  0.01689.
 Iteration  1 RMS(Cart)=  0.03258589 RMS(Int)=  0.00237731
 Iteration  2 RMS(Cart)=  0.00156776 RMS(Int)=  0.00184605
 Iteration  3 RMS(Cart)=  0.00000417 RMS(Int)=  0.00184605
 Iteration  4 RMS(Cart)=  0.00000002 RMS(Int)=  0.00184605
 Variable       Old X    -DE/DX   Delta X   Delta X   Delta X     New X
                                 (Linear)    (Quad)   (Total)
    R1        2.05581   0.00964   0.00030   0.02489   0.02520   2.08101
    R2        2.24704  -0.03303   0.00201  -0.08009  -0.07809   2.16895
    R3        2.05579   0.00965   0.00030   0.02491   0.02522   2.08101
    R4        2.88871  -0.01503   0.00248  -0.04007  -0.03655   2.85216
    R5        4.45274   0.02139   0.01415   0.12132   0.13417   4.58691
    R6        2.08227  -0.00231   0.00054  -0.00499  -0.00445   2.07782
    R7        2.08227  -0.00231   0.00054  -0.00498  -0.00444   2.07782
    R8        2.88376  -0.01360   0.00237  -0.03771  -0.03429   2.84947
    R9        2.24583  -0.03278   0.00200  -0.07949  -0.07750   2.16834
   R10        2.05563   0.00970   0.00030   0.02503   0.02533   2.08097
   R11        2.05561   0.00970   0.00030   0.02505   0.02535   2.08096
    A1        1.67954   0.01137  -0.00211   0.07428   0.07262   1.75216
    A2        1.86976   0.00682  -0.00043   0.02278   0.01753   1.88729
    A3        2.08500  -0.01048   0.00010  -0.06118  -0.06453   2.02047
    A4        1.73952  -0.00598   0.00152  -0.05364  -0.05277   1.68674
    A5        1.67949   0.01138  -0.00211   0.07431   0.07265   1.75214
    A6        1.98207   0.00038   0.00398   0.00789   0.01300   1.99507
    A7        2.67116  -0.01124   0.00123  -0.04107  -0.04046   2.63070
    A8        2.08502  -0.01049   0.00010  -0.06120  -0.06454   2.02048
    A9        1.73959  -0.00598   0.00152  -0.05365  -0.05278   1.68681
   A10        1.92102  -0.00516  -0.00136  -0.00958  -0.01311   1.90790
   A11        1.92096  -0.00516  -0.00136  -0.00956  -0.01309   1.90787
   A12        2.00426  -0.00042   0.00065  -0.04454  -0.04412   1.96014
   A13        1.92019  -0.00507  -0.00136  -0.00866  -0.01213   1.90807
   A14        1.92015  -0.00507  -0.00136  -0.00866  -0.01213   1.90802
   A15        2.66849  -0.01116   0.00123  -0.03974  -0.03909   2.62940
   A16        1.73946  -0.00580   0.00151  -0.05347  -0.05263   1.68683
   A17        1.73939  -0.00581   0.00151  -0.05350  -0.05265   1.68674
   A18        1.97798   0.00089   0.00394   0.01002   0.01509   1.99307
   A19        2.08528  -0.01051   0.00010  -0.06115  -0.06452   2.02076
   A20        2.08540  -0.01052   0.00010  -0.06121  -0.06458   2.02082
   A21        1.68116   0.01114  -0.00210   0.07335   0.07173   1.75289
   A22        1.68111   0.01115  -0.00210   0.07338   0.07176   1.75287
   A23        1.87017   0.00679  -0.00043   0.02238   0.01712   1.88728
    D1       -3.07623  -0.00414   0.00049  -0.02724  -0.02372  -3.09995
    D2       -0.85006  -0.01233  -0.00100  -0.09921  -0.09789  -0.94795
    D3       -1.11308   0.00409   0.00075   0.03597   0.03707  -1.07601
    D4        1.11309  -0.00410  -0.00075  -0.03600  -0.03710   1.07599
    D5        0.85001   0.01233   0.00100   0.09920   0.09788   0.94790
    D6        3.07618   0.00414  -0.00049   0.02723   0.02371   3.09989
    D7       -2.18724   0.00212   0.00004  -0.00101  -0.00161  -2.18885
    D8       -0.00036  -0.00003  -0.00000   0.00017   0.00019  -0.00017
    D9        1.90934   0.00426   0.00009  -0.00223  -0.00343   1.90590
   D10       -0.00034   0.00000  -0.00000   0.00000   0.00000  -0.00034
   D11        2.18654  -0.00214  -0.00005   0.00119   0.00180   2.18834
   D12       -2.18695   0.00214   0.00004  -0.00121  -0.00182  -2.18877
   D13        2.18661  -0.00212  -0.00004   0.00106   0.00165   2.18826
   D14       -1.90969  -0.00426  -0.00009   0.00224   0.00345  -1.90624
   D15        0.00001   0.00003   0.00000  -0.00015  -0.00017  -0.00017
   D16        1.11230  -0.00401  -0.00075  -0.03523  -0.03637   1.07594
   D17        3.07460   0.00432  -0.00050   0.02855   0.02495   3.09954
   D18       -0.85001  -0.01234  -0.00099  -0.09901  -0.09767  -0.94769
   D19       -1.11266   0.00401   0.00075   0.03526   0.03639  -1.07627
   D20        0.84963   0.01235   0.00099   0.09904   0.09770   0.94734
   D21       -3.07498  -0.00432   0.00050  -0.02852  -0.02491  -3.09989
         Item               Value     Threshold  Converged?
 Maximum Force            0.033030     0.000450     NO 
 RMS     Force            0.010230     0.000300     NO 
 Maximum Displacement     0.076363     0.001800     NO 
 RMS     Displacement     0.033097     0.001200     NO 
 Predicted change in Energy=-1.375408D-02
 GradGradGradGradGradGradGradGradGradGradGradGradGradGradGradGradGradGrad

                          Input orientation:                          
 ---------------------------------------------------------------------
 Center     Atomic      Atomic             Coordinates (Angstroms)
 Number     Number       Type             X           Y           Z
 ---------------------------------------------------------------------
      1          6           0       -0.149867    0.899534    0.456221
      2          1           0        0.212394    1.525992    1.286285
      3          1           0        0.174274    1.537348   -0.441262
      4          1           0       -1.243670    1.011262    0.394564
      5          6           0        0.367312   -0.518146    0.430084
      6          1           0       -0.024746   -1.031952   -0.459453
      7          1           0        1.466512   -0.504736    0.453765
      8          6           0       -0.150122   -1.202401    1.670142
      9          1           0        0.174314   -2.298227    1.772674
     10          1           0        0.212276   -0.796715    2.627601
     11          1           0       -1.243936   -1.311283    1.736107
 ---------------------------------------------------------------------
                    Distance matrix (angstroms):
                    1          2          3          4          5
     1  C    0.000000
     2  H    1.101222   0.000000
     3  H    1.147758   1.728005   0.000000
     4  H    1.101222   1.783322   1.727986   0.000000
     5  C    1.509296   2.221617   2.240884   2.221624   0.000000
     6  H    2.141204   3.105949   2.577061   2.527814   1.099537
     7  H    2.141182   2.527797   2.577025   3.105936   1.099537
     8  C    2.427290   2.779009   3.474116   2.779074   1.507874
     9  H    3.473301   3.855214   4.428673   3.855202   2.237964
    10  H    2.779083   2.682182   3.855803   3.221027   2.220522
    11  H    2.778995   3.220772   3.855769   2.682155   2.220559
                    6          7          8          9         10
     6  H    0.000000
     7  H    1.826411   0.000000
     8  C    2.140081   2.140050   0.000000
     9  H    2.573998   2.574083   1.147434   0.000000
    10  H    3.105063   2.526642   1.101200   1.728259   0.000000
    11  H    2.526843   3.105068   1.101198   1.728245   1.783283
                   11
    11  H    0.000000
 Stoichiometry    C3H8
 Framework group  C1[X(C3H8)]
 Deg. of freedom    27
 Full point group                 C1      NOp   1
 Largest Abelian subgroup         C1      NOp   1
 Largest concise Abelian subgroup C1      NOp   1
                         Standard orientation:                         
 ---------------------------------------------------------------------
 Center     Atomic      Atomic             Coordinates (Angstroms)
 Number     Number       Type             X           Y           Z
 ---------------------------------------------------------------------
      1          6           0       -1.213973   -0.268167   -0.000001
      2          1           0       -1.341577   -0.901720    0.891636
      3          1           0       -2.214991    0.293361    0.000047
      4          1           0       -1.341651   -0.901639   -0.891686
      5          6           0        0.000844    0.627485   -0.000003
      6          1           0        0.001148    1.239919   -0.913188
      7          1           0        0.001157    1.239858    0.913223
      8          6           0        1.213316   -0.268950   -0.000002
      9          1           0        2.213682    0.293076   -0.000145
     10          1           0        1.340605   -0.902416    0.891715
     11          1           0        1.340504   -0.902648   -0.891567
 ---------------------------------------------------------------------
 Rotational constants (GHZ):          28.2525495           8.8091102           7.7173636
 Standard basis: def2SVP (5D, 7F)
 There are    85 symmetry adapted cartesian basis functions of A   symmetry.
 There are    82 symmetry adapted basis functions of A   symmetry.
    82 basis functions,   131 primitive gaussians,    85 cartesian basis functions
    13 alpha electrons       13 beta electrons
       nuclear repulsion energy        82.6714888145 Hartrees.
 NAtoms=   11 NActive=   11 NUniq=   11 SFac= 1.00D+00 NAtFMM=   60 NAOKFM=F Big=F
 Integral buffers will be    131072 words long.
 Raffenetti 2 integral format.
 Two-electron integral symmetry is turned on.
 Nuclear repulsion after empirical dispersion term =       82.6671720747 Hartrees.
 One-electron integrals computed using PRISM.
   1 Symmetry operations used in ECPInt.
 ECPInt:  NShTT=     903 NPrTT=    2989 LenC2=     904 LenP2D=    2739.
 LDataN:  DoStor=T MaxTD1= 4 Len=   56
 NBasis=    82 RedAO= T EigKep=  2.89D-03  NBF=    82
 NBsUse=    82 1.00D-06 EigRej= -1.00D+00 NBFU=    82
 Initial guess from the checkpoint file:  "cyclopropane.chk"
 B after Tr=    -0.000000   -0.000000   -0.000000
         Rot=    1.000000    0.000001   -0.000001   -0.000293 Ang=   0.03 deg.
 ExpMin= 1.22D-01 ExpMax= 1.24D+03 ExpMxC= 1.86D+02 IAcc=2 IRadAn=         4 AccDes= 0.00D+00
 Harris functional with IExCor=  402 and IRadAn=       4 diagonalized for initial guess.
 HarFok:  IExCor=  402 AccDes= 0.00D+00 IRadAn=         4 IDoV= 1 UseB2=F ITyADJ=14
 ICtDFT=  3500011 ScaDFX=  1.000000  1.000000  1.000000  1.000000
 FoFCou: FMM=F IPFlag=           0 FMFlag=      100000 FMFlg1=           0
         NFxFlg=           0 DoJE=T BraDBF=F KetDBF=T FulRan=T
         wScrn=  0.000000 ICntrl=       500 IOpCl=  0 I1Cent=   200000004 NGrid=           0
         NMat0=    1 NMatS0=      1 NMatT0=    0 NMatD0=    1 NMtDS0=    0 NMtDT0=    0
 Petite list used in FoFCou.
 Keep R1 ints in memory in canonical form, NReq=6701822.
 Requested convergence on RMS density matrix=1.00D-08 within 128 cycles.
 Requested convergence on MAX density matrix=1.00D-06.
 Requested convergence on             energy=1.00D-06.
 No special actions if energy rises.
 Integral accuracy reduced to 1.0D-05 until final iterations.
 Initial convergence to 1.0D-05 achieved.  Increase integral accuracy.
 SCF Done:  E(RB3LYP) =  -119.051497369     A.U. after   10 cycles
            NFock= 10  Conv=0.65D-08     -V/T= 2.0143
   1 Symmetry operations used in ECPInt.
 ECPInt:  NShTT=     903 NPrTT=    2989 LenC2=     904 LenP2D=    2739.
 LDataN:  DoStor=T MaxTD1= 5 Len=  102
 Calling FoFJK, ICntrl=      2127 FMM=F ISym2X=0 I1Cent= 0 IOpClX= 0 NMat=1 NMatS=1 NMatT=0.
 ***** Axes restored to original set *****
 -------------------------------------------------------------------
 Center     Atomic                   Forces (Hartrees/Bohr)
 Number     Number              X              Y              Z
 -------------------------------------------------------------------
      1        6           0.006744187    0.046048032   -0.037598871
      2        1          -0.001078487   -0.007379154    0.007917592
      3        1          -0.001327851   -0.018059395    0.012596226
      4        1          -0.002628143   -0.007928045    0.006970726
      5        6          -0.010867372    0.008287659    0.012964890
      6        1           0.006303180   -0.001834389   -0.003217589
      7        1           0.001391419   -0.003573201   -0.006228450
      8        6           0.006548850   -0.055798850    0.021514057
      9        1          -0.001389800    0.019775540   -0.009140363
     10        1          -0.001064545    0.010506668   -0.002407987
     11        1          -0.002631438    0.009955133   -0.003370233
 -------------------------------------------------------------------
 Cartesian Forces:  Max     0.055798850 RMS     0.016601512

 GradGradGradGradGradGradGradGradGradGradGradGradGradGradGradGradGradGrad
 Berny optimization.
 Using GEDIIS/GDIIS optimizer.
 FormGI is forming the generalized inverse of G from B-inverse, IUseBI=4.
 Internal  Forces:  Max     0.020260223 RMS     0.005675384
 Search for a local minimum.
 Step number   5 out of a maximum of   65
 All quantities printed in internal units (Hartrees-Bohrs-Radians)
 Mixed Optimization -- RFO/linear search
 Update second derivatives using D2CorX and points    4    5
 DE= -1.90D-02 DEPred=-1.38D-02 R= 1.38D+00
 TightC=F SS=  1.41D+00  RLast= 3.70D-01 DXNew= 8.4853D-01 1.1089D+00
 Trust test= 1.38D+00 RLast= 3.70D-01 DXMaxT set to 8.49D-01
 ITU=  1  0  0  1  0
 Use linear search instead of GDIIS.
     Eigenvalues ---    0.00956   0.01984   0.02840   0.03159   0.04683
     Eigenvalues ---    0.05597   0.06270   0.08347   0.08535   0.09896
     Eigenvalues ---    0.12345   0.13185   0.13973   0.15153   0.16000
     Eigenvalues ---    0.16000   0.17627   0.32511   0.36962   0.37230
     Eigenvalues ---    0.37230   0.37230   0.37230   0.37230   0.37435
     Eigenvalues ---    0.43176   0.46387
 RFO step:  Lambda=-3.67139669D-03 EMin= 9.55841695D-03
 Quartic linear search produced a step of  0.94303.
 Iteration  1 RMS(Cart)=  0.03347437 RMS(Int)=  0.00442219
 Iteration  2 RMS(Cart)=  0.00205203 RMS(Int)=  0.00401785
 Iteration  3 RMS(Cart)=  0.00000696 RMS(Int)=  0.00401784
 Iteration  4 RMS(Cart)=  0.00000006 RMS(Int)=  0.00401784
 Variable       Old X    -DE/DX   Delta X   Delta X   Delta X     New X
                                 (Linear)    (Quad)   (Total)
    R1        2.08101   0.00142   0.02376  -0.01390   0.00986   2.09087
    R2        2.16895  -0.02026  -0.07364  -0.02842  -0.10206   2.06689
    R3        2.08101   0.00142   0.02378  -0.01391   0.00987   2.09087
    R4        2.85216   0.00119  -0.03447   0.03483   0.00253   2.85468
    R5        4.58691   0.01239   0.12652   0.02265   0.14655   4.73346
    R6        2.07782   0.00121  -0.00419   0.01209   0.00790   2.08572
    R7        2.07782   0.00121  -0.00419   0.01209   0.00790   2.08572
    R8        2.84947   0.00201  -0.03234   0.03605   0.00591   2.85538
    R9        2.16834  -0.02010  -0.07308  -0.02813  -0.10121   2.06712
   R10        2.08097   0.00143   0.02389  -0.01396   0.00992   2.09089
   R11        2.08096   0.00143   0.02391  -0.01398   0.00993   2.09089
    A1        1.75216   0.00801   0.06848   0.03094   0.09971   1.85187
    A2        1.88729   0.00225   0.01653  -0.01479  -0.01024   1.87705
    A3        2.02047  -0.00560  -0.06085  -0.00517  -0.07255   1.94792
    A4        1.68674  -0.00499  -0.04976  -0.01813  -0.06925   1.61749
    A5        1.75214   0.00801   0.06851   0.03093   0.09973   1.85186
    A6        1.99507  -0.00352   0.01226  -0.02813  -0.01477   1.98030
    A7        2.63070  -0.00631  -0.03815  -0.01783  -0.05678   2.57392
    A8        2.02048  -0.00560  -0.06086  -0.00517  -0.07256   1.94792
    A9        1.68681  -0.00499  -0.04978  -0.01814  -0.06928   1.61753
   A10        1.90790  -0.00058  -0.01237   0.01449  -0.00186   1.90604
   A11        1.90787  -0.00058  -0.01235   0.01450  -0.00184   1.90603
   A12        1.96014  -0.00311  -0.04161  -0.03559  -0.07716   1.88298
   A13        1.90807  -0.00055  -0.01144   0.01373  -0.00160   1.90646
   A14        1.90802  -0.00055  -0.01144   0.01376  -0.00158   1.90644
   A15        2.62940  -0.00626  -0.03686  -0.01785  -0.05541   2.57398
   A16        1.68683  -0.00491  -0.04963  -0.01815  -0.06917   1.61767
   A17        1.68674  -0.00491  -0.04965  -0.01816  -0.06920   1.61754
   A18        1.99307  -0.00325   0.01423  -0.02784  -0.01254   1.98053
   A19        2.02076  -0.00564  -0.06085  -0.00541  -0.07283   1.94793
   A20        2.02082  -0.00564  -0.06090  -0.00541  -0.07288   1.94793
   A21        1.75289   0.00790   0.06765   0.03089   0.09888   1.85177
   A22        1.75287   0.00790   0.06767   0.03088   0.09889   1.85176
   A23        1.88728   0.00225   0.01614  -0.01441  -0.01030   1.87698
    D1       -3.09995  -0.00157  -0.02237  -0.00344  -0.01887  -3.11882
    D2       -0.94795  -0.00619  -0.09231  -0.02884  -0.11554  -1.06349
    D3       -1.07601   0.00231   0.03496   0.01270   0.04832  -1.02769
    D4        1.07599  -0.00231  -0.03499  -0.01271  -0.04835   1.02763
    D5        0.94790   0.00619   0.09231   0.02883   0.11552   1.06342
    D6        3.09989   0.00157   0.02236   0.00342   0.01885   3.11874
    D7       -2.18885   0.00033  -0.00152  -0.01053  -0.01301  -2.20186
    D8       -0.00017  -0.00001   0.00018  -0.00018   0.00004  -0.00013
    D9        1.90590   0.00067  -0.00324  -0.02084  -0.02605   1.87985
   D10       -0.00034   0.00000   0.00000   0.00001   0.00002  -0.00032
   D11        2.18834  -0.00034   0.00170   0.01036   0.01307   2.20141
   D12       -2.18877   0.00034  -0.00172  -0.01030  -0.01303  -2.20180
   D13        2.18826  -0.00033   0.00156   0.01051   0.01303   2.20129
   D14       -1.90624  -0.00067   0.00325   0.02085   0.02608  -1.88016
[...]
    R6        2.08778   0.00002   0.00001   0.00006   0.00006   2.08784
    R7        2.08778   0.00002   0.00001   0.00006   0.00006   2.08784
    R8        2.89163  -0.00010  -0.00054   0.00003  -0.00051   2.89112
    R9        2.08261  -0.00000  -0.00010   0.00006  -0.00003   2.08257
   R10        2.08507   0.00003   0.00011  -0.00002   0.00009   2.08515
   R11        2.08507   0.00003   0.00011  -0.00002   0.00009   2.08515
    A1        1.87852   0.00001  -0.00012   0.00013   0.00001   1.87853
    A2        1.87301  -0.00002  -0.00017  -0.00009  -0.00026   1.87275
    A3        1.93959   0.00001   0.00034  -0.00002   0.00032   1.93991
    A4        1.61173   0.00003   0.00049  -0.00002   0.00047   1.61220
    A5        1.87852   0.00001  -0.00012   0.00013   0.00001   1.87853
    A6        1.95118  -0.00001  -0.00030  -0.00011  -0.00040   1.95078
    A7        2.53596  -0.00005  -0.00052  -0.00016  -0.00068   2.53528
    A8        1.93959   0.00001   0.00034  -0.00002   0.00032   1.93991
    A9        1.61177   0.00003   0.00049  -0.00002   0.00047   1.61223
   A10        1.91019  -0.00002  -0.00010   0.00007  -0.00003   1.91016
   A11        1.91019  -0.00002  -0.00010   0.00007  -0.00003   1.91017
   A12        1.84683  -0.00001  -0.00007  -0.00044  -0.00051   1.84631
   A13        1.91021  -0.00002  -0.00011   0.00007  -0.00004   1.91017
   A14        1.91021  -0.00002  -0.00011   0.00007  -0.00004   1.91017
   A15        2.53596  -0.00005  -0.00050  -0.00017  -0.00067   2.53529
   A16        1.61179   0.00003   0.00048  -0.00002   0.00046   1.61225
   A17        1.61172   0.00003   0.00049  -0.00002   0.00047   1.61220
   A18        1.95117  -0.00001  -0.00028  -0.00011  -0.00038   1.95078
   A19        1.93960   0.00001   0.00034  -0.00003   0.00031   1.93991
   A20        1.93959   0.00001   0.00034  -0.00003   0.00031   1.93991
   A21        1.87852   0.00001  -0.00013   0.00013  -0.00000   1.87852
   A22        1.87852   0.00001  -0.00013   0.00013   0.00000   1.87852
   A23        1.87300  -0.00002  -0.00017  -0.00009  -0.00026   1.87274
    D1       -3.10764   0.00001   0.00022   0.00015   0.00037  -3.10727
    D2       -1.09107  -0.00002   0.00002  -0.00029  -0.00027  -1.09134
    D3       -1.00832   0.00002   0.00010   0.00022   0.00032  -1.00800
    D4        1.00825  -0.00002  -0.00010  -0.00022  -0.00032   1.00793
    D5        1.09100   0.00002  -0.00002   0.00029   0.00028   1.09127
    D6        3.10757  -0.00001  -0.00022  -0.00015  -0.00037   3.10720
    D7       -2.20409  -0.00001  -0.00005  -0.00004  -0.00008  -2.20417
    D8       -0.00008  -0.00000   0.00001   0.00000   0.00001  -0.00007
    D9        1.87521  -0.00001  -0.00011  -0.00008  -0.00020   1.87501
   D10       -0.00017   0.00000   0.00001   0.00001   0.00002  -0.00015
   D11        2.20384   0.00001   0.00007   0.00005   0.00012   2.20395
   D12       -2.20406  -0.00001  -0.00005  -0.00004  -0.00009  -2.20415
   D13        2.20381   0.00001   0.00007   0.00006   0.00013   2.20393
   D14       -1.87537   0.00001   0.00012   0.00010   0.00022  -1.87515
   D15       -0.00008   0.00000   0.00001   0.00001   0.00001  -0.00007
   D16        1.00823  -0.00002  -0.00010  -0.00022  -0.00032   1.00791
   D17        3.10754  -0.00001  -0.00022  -0.00015  -0.00036   3.10718
   D18       -1.09108  -0.00002   0.00002  -0.00029  -0.00027  -1.09136
   D19       -1.00836   0.00002   0.00011   0.00023   0.00034  -1.00802
   D20        1.09095   0.00002  -0.00001   0.00030   0.00030   1.09125
   D21       -3.10768   0.00001   0.00023   0.00016   0.00038  -3.10729
         Item               Value     Threshold  Converged?
 Maximum Force            0.000114     0.000450     YES
 RMS     Force            0.000029     0.000300     YES
 Maximum Displacement     0.001228     0.001800     YES
 RMS     Displacement     0.000420     0.001200     YES
 Predicted change in Energy=-1.649967D-07
 Optimization completed.
    -- Stationary point found.
                           ----------------------------
                           !   Optimized Parameters   !
                           ! (Angstroms and Degrees)  !
 --------------------------                            --------------------------
 ! Name  Definition              Value          Derivative Info.                !
 --------------------------------------------------------------------------------
 ! R1    R(1,2)                  1.1034         -DE/DX =    0.0                 !
 ! R2    R(1,3)                  1.1021         -DE/DX =    0.0                 !
 ! R3    R(1,4)                  1.1034         -DE/DX =    0.0                 !
 ! R4    R(1,5)                  1.5302         -DE/DX =   -0.0001              !
 ! R5    R(1,8)                  2.5518         -DE/DX =    0.0                 !
 ! R6    R(5,6)                  1.1048         -DE/DX =    0.0                 !
 ! R7    R(5,7)                  1.1048         -DE/DX =    0.0                 !
 ! R8    R(5,8)                  1.5302         -DE/DX =   -0.0001              !
 ! R9    R(8,9)                  1.1021         -DE/DX =    0.0                 !
 ! R10   R(8,10)                 1.1034         -DE/DX =    0.0                 !
 ! R11   R(8,11)                 1.1034         -DE/DX =    0.0                 !
 ! A1    A(2,1,3)              107.6314         -DE/DX =    0.0                 !
 ! A2    A(2,1,4)              107.3154         -DE/DX =    0.0                 !
 ! A3    A(2,1,5)              111.1301         -DE/DX =    0.0                 !
 ! A4    A(2,1,8)               92.3455         -DE/DX =    0.0                 !
 ! A5    A(3,1,4)              107.6315         -DE/DX =    0.0                 !
 ! A6    A(3,1,5)              111.7945         -DE/DX =    0.0                 !
 ! A7    A(3,1,8)              145.3001         -DE/DX =   -0.0001              !
 ! A8    A(4,1,5)              111.1301         -DE/DX =    0.0                 !
 ! A9    A(4,1,8)               92.3474         -DE/DX =    0.0                 !
 ! A10   A(1,5,6)              109.4459         -DE/DX =    0.0                 !
 ! A11   A(1,5,7)              109.4459         -DE/DX =    0.0                 !
 ! A12   A(6,5,7)              105.8153         -DE/DX =    0.0                 !
 ! A13   A(6,5,8)              109.447          -DE/DX =    0.0                 !
 ! A14   A(7,5,8)              109.4469         -DE/DX =    0.0                 !
 ! A15   A(1,8,9)              145.2997         -DE/DX =   -0.0001              !
 ! A16   A(1,8,10)              92.3486         -DE/DX =    0.0                 !
 ! A17   A(1,8,11)              92.345          -DE/DX =    0.0                 !
 ! A18   A(5,8,9)              111.7936         -DE/DX =    0.0                 !
 ! A19   A(5,8,10)             111.1309         -DE/DX =    0.0                 !
 ! A20   A(5,8,11)             111.1306         -DE/DX =    0.0                 !
 ! A21   A(9,8,10)             107.6314         -DE/DX =    0.0                 !
 ! A22   A(9,8,11)             107.6314         -DE/DX =    0.0                 !
 ! A23   A(10,8,11)            107.3152         -DE/DX =    0.0                 !
 ! D1    D(2,1,5,6)           -178.0547         -DE/DX =    0.0                 !
 ! D2    D(2,1,5,7)            -62.5137         -DE/DX =    0.0                 !
 ! D3    D(3,1,5,6)            -57.7726         -DE/DX =    0.0                 !
 ! D4    D(3,1,5,7)             57.7684         -DE/DX =    0.0                 !
 ! D5    D(4,1,5,6)             62.5096         -DE/DX =    0.0                 !
 ! D6    D(4,1,5,7)            178.0506         -DE/DX =    0.0                 !
 ! D7    D(2,1,8,9)           -126.2849         -DE/DX =    0.0                 !
 ! D8    D(2,1,8,10)            -0.0046         -DE/DX =    0.0                 !
 ! D9    D(2,1,8,11)           107.4414         -DE/DX =    0.0                 !
 ! D10   D(3,1,8,9)             -0.0098         -DE/DX =    0.0                 !
 ! D11   D(3,1,8,10)           126.2705         -DE/DX =    0.0                 !
 ! D12   D(3,1,8,11)          -126.2835         -DE/DX =    0.0                 !
 ! D13   D(4,1,8,9)            126.2688         -DE/DX =    0.0                 !
 ! D14   D(4,1,8,10)          -107.4509         -DE/DX =    0.0                 !
 ! D15   D(4,1,8,11)            -0.0048         -DE/DX =    0.0                 !
 ! D16   D(6,5,8,9)             57.7672         -DE/DX =    0.0                 !
 ! D17   D(6,5,8,10)           178.0492         -DE/DX =    0.0                 !
 ! D18   D(6,5,8,11)           -62.5145         -DE/DX =    0.0                 !
 ! D19   D(7,5,8,9)            -57.775          -DE/DX =    0.0                 !
 ! D20   D(7,5,8,10)            62.507          -DE/DX =    0.0                 !
 ! D21   D(7,5,8,11)          -178.0567         -DE/DX =    0.0                 !
 --------------------------------------------------------------------------------
 GradGradGradGradGradGradGradGradGradGradGradGradGradGradGradGradGradGrad

                          Input orientation:                          
 ---------------------------------------------------------------------
 Center     Atomic      Atomic             Coordinates (Angstroms)
 Number     Number       Type             X           Y           Z
 ---------------------------------------------------------------------
      1          6           0       -0.150369    0.953693    0.425799
      2          1           0        0.198706    1.515744    1.308788
      3          1           0        0.211963    1.482083   -0.470900
      4          1           0       -1.252635    1.002684    0.420016
      5          6           0        0.337148   -0.496203    0.466677
      6          1           0        0.002251   -1.022696   -0.445046
      7          1           0        1.441388   -0.513952    0.436178
      8          6           0       -0.150656   -1.256102    1.702018
      9          1           0        0.211387   -2.296960    1.711527
     10          1           0        0.198492   -0.772323    2.630176
     11          1           0       -1.252933   -1.285293    1.741495
 ---------------------------------------------------------------------
                    Distance matrix (angstroms):
                    1          2          3          4          5
     1  C    0.000000
     2  H    1.103370   0.000000
     3  H    1.102066   1.780056   0.000000
     4  H    1.103369   1.777509   1.780057   0.000000
     5  C    1.530211   2.185464   2.192793   2.185464   0.000000
     6  H    2.165128   3.091635   2.513676   2.534805   1.104803
     7  H    2.165128   2.534832   2.513649   3.091635   1.104803
     8  C    2.551848   2.821314   3.514360   2.821347   1.530185
     9  H    3.514358   3.833938   4.363961   3.833929   2.192759
    10  H    2.821367   2.642218   3.833954   3.184529   2.185451
    11  H    2.821305   3.184384   3.833925   2.642185   2.185447
                    6          7          8          9         10
     6  H    0.000000
     7  H    1.762524   0.000000
     8  C    2.165120   2.165119   0.000000
     9  H    2.513622   2.513670   1.102067   0.000000
    10  H    3.091632   2.534792   1.103369   1.780057   0.000000
    11  H    2.534838   3.091631   1.103369   1.780056   1.777506
                   11
    11  H    0.000000
 Stoichiometry    C3H8
 Framework group  C1[X(C3H8)]
 Deg. of freedom    27
 Full point group                 C1      NOp   1
 Largest Abelian subgroup         C1      NOp   1
 Largest concise Abelian subgroup C1      NOp   1
                         Standard orientation:                         
 ---------------------------------------------------------------------
 Center     Atomic      Atomic             Coordinates (Angstroms)
 Number     Number       Type             X           Y           Z
 ---------------------------------------------------------------------
      1          6           0       -1.275929   -0.259066   -0.000000
      2          1           0       -1.321087   -0.911396    0.888735
      3          1           0       -2.181985    0.368319    0.000038
      4          1           0       -1.321123   -0.911341   -0.888773
      5          6           0        0.000012    0.585634    0.000000
      6          1           0        0.000006    1.251943   -0.881262
      7          1           0        0.000006    1.251942    0.881263
      8          6           0        1.275919   -0.259073    0.000000
      9          1           0        2.181976    0.368314   -0.000069
     10          1           0        1.321132   -0.911329    0.888786
     11          1           0        1.321063   -0.911424   -0.888720
 ---------------------------------------------------------------------
 Rotational constants (GHZ):          29.2914181           8.3597727           7.4093966

 **********************************************************************

            Population analysis using the SCF density.

 **********************************************************************

 Orbital symmetries:
       Occupied  (A) (A) (A) (A) (A) (A) (A) (A) (A) (A) (A) (A)
                 (A)
       Virtual   (A) (A) (A) (A) (A) (A) (A) (A) (A) (A) (A) (A)
                 (A) (A) (A) (A) (A) (A) (A) (A) (A) (A) (A) (A)
                 (A) (A) (A) (A) (A) (A) (A) (A) (A) (A) (A) (A)
                 (A) (A) (A) (A) (A) (A) (A) (A) (A) (A) (A) (A)
                 (A) (A) (A) (A) (A) (A) (A) (A) (A) (A) (A) (A)
                 (A) (A) (A) (A) (A) (A) (A) (A) (A)
 The electronic state is 1-A.
 Alpha  occ. eigenvalues --  -10.18210 -10.17634 -10.17632  -0.77061  -0.67074
 Alpha  occ. eigenvalues --   -0.57571  -0.45369  -0.43460  -0.39711  -0.37813
 Alpha  occ. eigenvalues --   -0.33932  -0.33650  -0.32589
 Alpha virt. eigenvalues --    0.05712   0.10329   0.10567   0.10640   0.13447
 Alpha virt. eigenvalues --    0.15481   0.15796   0.16512   0.21372   0.25322
 Alpha virt. eigenvalues --    0.39652   0.41821   0.42949   0.44577   0.45776
 Alpha virt. eigenvalues --    0.60618   0.62416   0.62783   0.63156   0.63921
 Alpha virt. eigenvalues --    0.67832   0.67864   0.69188   0.69664   0.69836
 Alpha virt. eigenvalues --    0.70352   0.71258   0.75323   0.99026   1.00719
 Alpha virt. eigenvalues --    1.11341   1.13475   1.28468   1.35930   1.37077
 Alpha virt. eigenvalues --    1.53919   1.54172   1.56783   1.71627   1.74050
 Alpha virt. eigenvalues --    1.75804   1.78910   1.79439   1.80084   1.82196
 Alpha virt. eigenvalues --    1.84251   1.84841   1.86425   1.86799   1.95677
 Alpha virt. eigenvalues --    1.99439   2.08875   2.22373   2.23177   2.34390
 Alpha virt. eigenvalues --    2.38970   2.39760   2.45943   2.55144   2.56559
 Alpha virt. eigenvalues --    2.59436   2.65287   2.83394   2.86543   2.90179
 Alpha virt. eigenvalues --    2.92637   3.01162   3.03242   3.06489
          Condensed to atoms (all electrons):
               1          2          3          4          5          6
     1  C    4.524902   0.387176   0.372677   0.387175   0.448229  -0.024191
     2  H    0.387176   0.684252  -0.024838  -0.027691  -0.026212   0.008942
     3  H    0.372677  -0.024838   0.683949  -0.024838  -0.012219  -0.006084
     4  H    0.387175  -0.027691  -0.024838   0.684251  -0.026210  -0.009276
     5  C    0.448229  -0.026212  -0.012219  -0.026210   4.530040   0.369486
     6  H   -0.024191   0.008942  -0.006084  -0.009276   0.369486   0.721520
     7  H   -0.024191  -0.009274  -0.006085   0.008941   0.369486  -0.033124
     8  C   -0.056291  -0.005917   0.007643  -0.005917   0.448232  -0.024190
     9  H    0.007644   0.000018  -0.000505   0.000018  -0.012219  -0.006086
    10  H   -0.005917   0.007310   0.000018  -0.001659  -0.026209   0.008942
    11  H   -0.005918  -0.001659   0.000018   0.007310  -0.026212  -0.009274
               7          8          9         10         11
     1  C   -0.024191  -0.056291   0.007644  -0.005917  -0.005918
     2  H   -0.009274  -0.005917   0.000018   0.007310  -0.001659
     3  H   -0.006085   0.007643  -0.000505   0.000018   0.000018
     4  H    0.008941  -0.005917   0.000018  -0.001659   0.007310
     5  C    0.369486   0.448232  -0.012219  -0.026209  -0.026212
     6  H   -0.033124  -0.024190  -0.006086   0.008942  -0.009274
     7  H    0.721520  -0.024190  -0.006084  -0.009277   0.008942
     8  C   -0.024190   4.524888   0.372675   0.387176   0.387177
     9  H   -0.006084   0.372675   0.683951  -0.024838  -0.024837
    10  H   -0.009277   0.387176  -0.024838   0.684251  -0.027692
    11  H    0.008942   0.387177  -0.024837  -0.027692   0.684252
 Mulliken charges:
               1
     1  C   -0.011294
     2  H    0.007894
     3  H    0.010263
     4  H    0.007895
     5  C   -0.036193
     6  H    0.003336
     7  H    0.003336
     8  C   -0.011286
     9  H    0.010262
    10  H    0.007895
    11  H    0.007893
 Sum of Mulliken charges =  -0.00000
 Mulliken charges with hydrogens summed into heavy atoms:
               1
     1  C    0.014757
     5  C   -0.029522
     8  C    0.014764
 Electronic spatial extent (au):  <R**2>=            228.5416
 Charge=             -0.0000 electrons
 Dipole moment (field-independent basis, Debye):
    X=              0.0000    Y=              0.0562    Z=              0.0000  Tot=              0.0562
 Quadrupole moment (field-independent basis, Debye-Ang):
   XX=            -22.1733   YY=            -21.8920   ZZ=            -21.5208
   XY=             -0.0000   XZ=             -0.0000   YZ=             -0.0000
 Traceless Quadrupole moment (field-independent basis, Debye-Ang):
   XX=             -0.3112   YY=             -0.0299   ZZ=              0.3412
   XY=             -0.0000   XZ=             -0.0000   YZ=             -0.0000
 Octapole moment (field-independent basis, Debye-Ang**2):
  XXX=             -0.0000  YYY=              0.1684  ZZZ=              0.0000  XYY=              0.0000
  XXY=              1.2220  XXZ=             -0.0000  XZZ=              0.0000  YZZ=             -0.3372
  YYZ=             -0.0000  XYZ=             -0.0001
 Hexadecapole moment (field-independent basis, Debye-Ang**3):
 XXXX=           -204.4136 YYYY=            -71.2720 ZZZZ=            -44.2251 XXXY=             -0.0001
 XXXZ=             -0.0002 YYYX=             -0.0001 YYYZ=              0.0000 ZZZX=              0.0002
 ZZZY=             -0.0000 XXYY=            -45.6453 XXZZ=            -42.0850 YYZZ=            -17.6877
 XXYZ=             -0.0001 YYXZ=             -0.0001 ZZXY=             -0.0000
 N-N= 8.211469174156D+01 E-N=-4.381089108200D+02  KE= 1.173770094957D+02
 1\1\GINC-HOMEOFFICE\FOpt\RB3LYP\def2SVP\C3H8\JULIEN\02-Sep-2023\0\\# o
 pt b3lyp def2svp empiricaldispersion=gd3\\Title Card Required\\0,1\C,-
 0.1503688828,0.9536931606,0.4257989652\H,0.1987061612,1.5157443646,1.3
 087879608\H,0.2119625565,1.4820830023,-0.470900446\H,-1.2526349529,1.0
 026840252,0.4200163099\C,0.3371481894,-0.4962034965,0.4666770026\H,0.0
 022506144,-1.022696042,-0.4450461326\H,1.4413876279,-0.513952061,0.436
 1780258\C,-0.1506562008,-1.2561015978,1.7020183566\H,0.2113867628,-2.2
 969603587,1.7115271121\H,0.1984924716,-0.7723227487,2.6301760867\H,-1.
 2529327749,-1.2852928306,1.7414945243\\Version=ES64L-G16RevA.03\State=
 1-A\HF=-119.0615988\RMSD=5.752e-09\RMSF=6.335e-05\Dipole=0.0127724,-0.
 0090396,-0.0156399\Quadrupole=0.1616975,-0.1561114,-0.0055861,0.065015
 9,0.1126531,0.1303935\PG=C01 [X(C3H8)]\\@
 The archive entry for this job was punched.


 Discoveries are often made by not following instructions,
 by going off the main road, by trying the untried.
 -- Frank Tyger
 Job cpu time:       0 days  0 hours  2 minutes  9.9 seconds.
 Elapsed time:       0 days  0 hours  2 minutes  9.9 seconds.
 File lengths (MBytes):  RWF=     10 Int=      0 D2E=      0 Chk=      2 Scr=      1
 Normal termination of Gaussian 16 at Sat Sep  2 02:47:55 2023.
